# vtk DataFile Version 2.0
./pics/Error_1_4.vtk, Created by Freefem++ 
ASCII
DATASET UNSTRUCTURED_GRID
POINTS 289 float
0 0 0
0.25 0 0
0.5 0 0
0.75 0 0
1 0 0
0 0.25 0
0.25 0.25 0
0.5 0.25 0
0.75 0.25 0
1 0.25 0
0 0.5 0
0.25 0.5 0
0.5 0.5 0
0.75 0.5 0
1 0.5 0
0 0.75 0
0.25 0.75 0
0.5 0.75 0
0.75 0.75 0
1 0.75 0
0 1 0
0.25 1 0
0.5 1 0
0.75 1 0
1 1 0
0.25 0.125 0
0.125 0 0
0 0.125 0
0.125 0.125 0
0.5 0.125 0
0.375 0 0
0.375 0.125 0
0.75 0.125 0
0.625 0 0
0.625 0.125 0
0.875 0.125 0
0.875 0 0
1 0.125 0
0.25 0.375 0
0.125 0.25 0
0 0.375 0
0.125 0.375 0
0.5 0.375 0
0.375 0.25 0
0.375 0.375 0
0.75 0.375 0
0.625 0.25 0
0.625 0.375 0
1 0.375 0
0.875 0.25 0
0.875 0.375 0
0.25 0.625 0
0.125 0.5 0
0 0.625 0
0.125 0.625 0
0.5 0.625 0
0.375 0.5 0
0.375 0.625 0
0.75 0.625 0
0.625 0.5 0
0.625 0.625 0
1 0.625 0
0.875 0.5 0
0.875 0.625 0
0.125 0.875 0
0 0.875 0
0.125 0.75 0
0.25 0.875 0
0.125 1 0
0.5 0.875 0
0.375 0.75 0
0.375 1 0
0.375 0.875 0
0.75 0.875 0
0.625 0.75 0
0.625 1 0
0.625 0.875 0
1 0.875 0
0.875 0.75 0
0.875 1 0
0.875 0.875 0
0.125 0.0625 0
0.0625 0 0
0.25 0.0625 0
0.1875 0.0625 0
0.1875 0 0
0.1875 0.1875 0
0.1875 0.125 0
0 0.0625 0
0.0625 0.0625 0
0.1875 0.25 0
0 0.1875 0
0.0625 0.1875 0
0.0625 0.125 0
0.125 0.1875 0
0.375 0.0625 0
0.3125 0 0
0.5 0.0625 0
0.4375 0.0625 0
0.4375 0 0
0.4375 0.1875 0
0.4375 0.125 0
0.3125 0.0625 0
0.4375 0.25 0
0.25 0.1875 0
0.3125 0.1875 0
0.3125 0.125 0
0.375 0.1875 0
0.625 0.0625 0
0.5625 0 0
0.75 0.0625 0
0.6875 0.0625 0
0.6875 0 0
0.6875 0.1875 0
0.6875 0.125 0
0.5625 0.0625 0
0.6875 0.25 0
0.5 0.1875 0
0.5625 0.1875 0
0.5625 0.125 0
0.625 0.1875 0
0.8125 0 0
0.9375 0.0625 0
0.875 0.0625 0
0.9375 0 0
0.75 0.1875 0
0.8125 0.125 0
0.8125 0.0625 0
0.875 0.1875 0
0.8125 0.1875 0
1 0.0625 0
1 0.1875 0
0.9375 0.25 0
0.9375 0.125 0
0.9375 0.1875 0
0.125 0.3125 0
0.0625 0.25 0
0.25 0.3125 0
0.1875 0.3125 0
0.1875 0.4375 0
0.1875 0.375 0
0 0.3125 0
0.0625 0.3125 0
0.1875 0.5 0
0 0.4375 0
0.0625 0.4375 0
0.0625 0.375 0
0.125 0.4375 0
0.375 0.3125 0
0.3125 0.25 0
0.5 0.3125 0
0.4375 0.3125 0
0.4375 0.4375 0
0.4375 0.375 0
0.3125 0.3125 0
0.4375 0.5 0
0.25 0.4375 0
0.3125 0.4375 0
0.3125 0.375 0
0.375 0.4375 0
0.625 0.3125 0
0.5625 0.25 0
0.75 0.3125 0
0.6875 0.3125 0
0.6875 0.4375 0
0.6875 0.375 0
0.5625 0.3125 0
0.6875 0.5 0
0.5 0.4375 0
0.5625 0.4375 0
0.5625 0.375 0
0.625 0.4375 0
0.875 0.3125 0
0.8125 0.25 0
1 0.3125 0
0.9375 0.3125 0
1 0.4375 0
0.9375 0.4375 0
0.9375 0.375 0
0.8125 0.3125 0
0.9375 0.5 0
0.75 0.4375 0
0.8125 0.4375 0
0.8125 0.375 0
0.875 0.4375 0
0.125 0.5625 0
0.0625 0.5 0
0.25 0.5625 0
0.1875 0.5625 0
0.1875 0.6875 0
0.1875 0.625 0
0 0.5625 0
0.0625 0.5625 0
0.1875 0.75 0
0 0.6875 0
0.0625 0.6875 0
0.0625 0.625 0
0.125 0.6875 0
0.375 0.5625 0
0.3125 0.5 0
0.5 0.5625 0
0.4375 0.5625 0
0.4375 0.6875 0
0.4375 0.625 0
0.3125 0.5625 0
0.4375 0.75 0
0.25 0.6875 0
0.3125 0.6875 0
0.3125 0.625 0
0.375 0.6875 0
0.625 0.5625 0
0.5625 0.5 0
0.75 0.5625 0
0.6875 0.5625 0
0.6875 0.6875 0
0.6875 0.625 0
0.5625 0.5625 0
0.6875 0.75 0
0.5 0.6875 0
0.5625 0.6875 0
0.5625 0.625 0
0.625 0.6875 0
0.875 0.5625 0
0.8125 0.5 0
1 0.5625 0
0.9375 0.5625 0
1 0.6875 0
0.9375 0.6875 0
0.9375 0.625 0
0.8125 0.5625 0
0.9375 0.75 0
0.75 0.6875 0
0.8125 0.6875 0
0.8125 0.625 0
0.875 0.6875 0
0 0.8125 0
0.0625 0.75 0
0.1875 0.8125 0
0.125 0.8125 0
0 0.9375 0
0.0625 0.8125 0
0.0625 0.875 0
0.125 0.9375 0
0.0625 1 0
0.0625 0.9375 0
0.25 0.8125 0
0.1875 1 0
0.1875 0.875 0
0.1875 0.9375 0
0.375 0.8125 0
0.3125 0.75 0
0.5 0.8125 0
0.4375 0.8125 0
0.4375 0.9375 0
0.4375 0.875 0
0.3125 0.8125 0
0.4375 1 0
0.375 0.9375 0
0.3125 1 0
0.25 0.9375 0
0.3125 0.9375 0
0.3125 0.875 0
0.625 0.8125 0
0.5625 0.75 0
0.75 0.8125 0
0.6875 0.8125 0
0.6875 0.9375 0
0.6875 0.875 0
0.5625 0.8125 0
0.6875 1 0
0.625 0.9375 0
0.5625 1 0
0.5 0.9375 0
0.5625 0.9375 0
0.5625 0.875 0
0.875 0.8125 0
0.8125 0.75 0
1 0.8125 0
0.9375 0.8125 0
1 0.9375 0
0.9375 0.9375 0
0.9375 0.875 0
0.8125 0.8125 0
0.9375 1 0
0.875 0.9375 0
0.8125 1 0
0.75 0.9375 0
0.8125 0.9375 0
0.8125 0.875 0

CELLS 576 2240
3 0 82 89
3 82 26 81
3 89 81 28
3 81 89 82
3 26 85 84
3 85 1 83
3 84 83 25
3 83 84 85
3 28 87 86
3 87 25 104
3 86 104 6
3 104 86 87
3 25 87 84
3 87 28 81
3 84 81 26
3 81 84 87
3 0 89 88
3 89 28 93
3 88 93 27
3 93 88 89
3 28 86 94
3 86 6 90
3 94 90 39
3 90 94 86
3 27 92 91
3 92 39 136
3 91 136 5
3 136 91 92
3 39 92 94
3 92 27 93
3 94 93 28
3 93 94 92
3 1 96 102
3 96 30 95
3 102 95 31
3 95 102 96
3 30 99 98
3 99 2 97
3 98 97 29
3 97 98 99
3 31 101 100
3 101 29 117
3 100 117 7
3 117 100 101
3 29 101 98
3 101 31 95
3 98 95 30
3 95 98 101
3 1 102 83
3 102 31 106
3 83 106 25
3 106 83 102
3 31 100 107
3 100 7 103
3 107 103 43
3 103 107 100
3 25 105 104
3 105 43 149
3 104 149 6
3 149 104 105
3 43 105 107
3 105 25 106
3 107 106 31
3 106 107 105
3 2 109 115
3 109 33 108
3 115 108 34
3 108 115 109
3 33 112 111
3 112 3 110
3 111 110 32
3 110 111 112
3 34 114 113
3 114 32 125
3 113 125 8
3 125 113 114
3 32 114 111
3 114 34 108
3 111 108 33
3 108 111 114
3 2 115 97
3 115 34 119
3 97 119 29
3 119 97 115
3 34 113 120
3 113 8 116
3 120 116 46
3 116 120 113
3 29 118 117
3 118 46 161
3 117 161 7
3 161 117 118
3 46 118 120
3 118 29 119
3 120 119 34
3 119 120 118
3 3 121 110
3 121 36 127
3 110 127 32
3 127 110 121
3 36 124 123
3 124 4 122
3 123 122 35
3 122 123 124
3 32 126 125
3 126 35 129
3 125 129 8
3 129 125 126
3 35 126 123
3 126 32 127
3 123 127 36
3 127 123 126
3 8 129 173
3 129 35 128
3 173 128 49
3 128 173 129
3 35 122 133
3 122 4 130
3 133 130 37
3 130 133 122
3 49 134 132
3 134 37 131
3 132 131 9
3 131 132 134
3 37 134 133
3 134 49 128
3 133 128 35
3 128 133 134
3 5 136 142
3 136 39 135
3 142 135 41
3 135 142 136
3 39 90 138
3 90 6 137
3 138 137 38
3 137 138 90
3 41 140 139
3 140 38 156
3 139 156 11
3 156 139 140
3 38 140 138
3 140 41 135
3 138 135 39
3 135 138 140
3 5 142 141
3 142 41 146
3 141 146 40
3 146 141 142
3 41 139 147
3 139 11 143
3 147 143 52
3 143 147 139
3 40 145 144
3 145 52 186
3 144 186 10
3 186 144 145
3 52 145 147
3 145 40 146
3 147 146 41
3 146 147 145
3 6 149 154
3 149 43 148
3 154 148 44
3 148 154 149
3 43 103 151
3 103 7 150
3 151 150 42
3 150 151 103
3 44 153 152
3 153 42 168
3 152 168 12
3 168 152 153
3 42 153 151
3 153 44 148
3 151 148 43
3 148 151 153
3 6 154 137
3 154 44 158
3 137 158 38
3 158 137 154
3 44 152 159
3 152 12 155
3 159 155 56
3 155 159 152
3 38 157 156
3 157 56 199
3 156 199 11
3 199 156 157
3 56 157 159
3 157 38 158
3 159 158 44
3 158 159 157
3 7 161 166
3 161 46 160
3 166 160 47
3 160 166 161
3 46 116 163
3 116 8 162
3 163 162 45
3 162 163 116
3 47 165 164
3 165 45 181
3 164 181 13
3 181 164 165
3 45 165 163
3 165 47 160
3 163 160 46
3 160 163 165
3 7 166 150
3 166 47 170
3 150 170 42
3 170 150 166
3 47 164 171
3 164 13 167
3 171 167 59
3 167 171 164
3 42 169 168
3 169 59 211
3 168 211 12
3 211 168 169
3 59 169 171
3 169 42 170
3 171 170 47
3 170 171 169
3 8 173 179
3 173 49 172
3 179 172 50
3 172 179 173
3 49 132 175
3 132 9 174
3 175 174 48
3 174 175 132
3 50 178 177
3 178 48 176
3 177 176 14
3 176 177 178
3 48 178 175
3 178 50 172
3 175 172 49
3 172 175 178
3 8 179 162
3 179 50 183
3 162 183 45
3 183 162 179
3 50 177 184
3 177 14 180
3 184 180 62
3 180 184 177
3 45 182 181
3 182 62 223
3 181 223 13
3 223 181 182
3 62 182 184
3 182 45 183
3 184 183 50
3 183 184 182
3 10 186 192
3 186 52 185
3 192 185 54
3 185 192 186
3 52 143 188
3 143 11 187
3 188 187 51
3 187 188 143
3 54 190 189
3 190 51 206
3 189 206 16
3 206 189 190
3 51 190 188
3 190 54 185
3 188 185 52
3 185 188 190
3 10 192 191
3 192 54 196
3 191 196 53
3 196 191 192
3 54 189 197
3 189 16 193
3 197 193 66
3 193 197 189
3 53 195 194
3 195 66 236
3 194 236 15
3 236 194 195
3 66 195 197
3 195 53 196
3 197 196 54
3 196 197 195
3 11 199 204
3 199 56 198
3 204 198 57
3 198 204 199
3 56 155 201
3 155 12 200
3 201 200 55
3 200 201 155
3 57 203 202
3 203 55 218
3 202 218 17
3 218 202 203
3 55 203 201
3 203 57 198
3 201 198 56
3 198 201 203
3 11 204 187
3 204 57 208
3 187 208 51
3 208 187 204
3 57 202 209
3 202 17 205
3 209 205 70
3 205 209 202
3 51 207 206
3 207 70 250
3 206 250 16
3 250 206 207
3 70 207 209
3 207 51 208
3 209 208 57
3 208 209 207
3 12 211 216
3 211 59 210
3 216 210 60
3 210 216 211
3 59 167 213
3 167 13 212
3 213 212 58
3 212 213 167
3 60 215 214
3 215 58 231
3 214 231 18
3 231 214 215
3 58 215 213
3 215 60 210
3 213 210 59
3 210 213 215
3 12 216 200
3 216 60 220
3 200 220 55
3 220 200 216
3 60 214 221
3 214 18 217
3 221 217 74
3 217 221 214
3 55 219 218
3 219 74 263
3 218 263 17
3 263 218 219
3 74 219 221
3 219 55 220
3 221 220 60
3 220 221 219
3 13 223 229
3 223 62 222
3 229 222 63
3 222 229 223
3 62 180 225
3 180 14 224
3 225 224 61
3 224 225 180
3 63 228 227
3 228 61 226
3 227 226 19
3 226 227 228
3 61 228 225
3 228 63 222
3 225 222 62
3 222 225 228
3 13 229 212
3 229 63 233
3 212 233 58
3 233 212 229
3 63 227 234
3 227 19 230
3 234 230 78
3 230 234 227
3 58 232 231
3 232 78 276
3 231 276 18
3 276 231 232
3 78 232 234
3 232 58 233
3 234 233 63
3 233 234 232
3 15 236 235
3 236 66 240
3 235 240 65
3 240 235 236
3 66 193 238
3 193 16 237
3 238 237 64
3 237 238 193
3 65 241 239
3 241 64 244
3 239 244 20
3 244 239 241
3 64 241 238
3 241 65 240
3 238 240 66
3 240 238 241
3 20 244 243
3 244 64 242
3 243 242 68
3 242 243 244
3 64 237 247
3 237 16 245
3 247 245 67
3 245 247 237
3 68 248 246
3 248 67 259
3 246 259 21
3 259 246 248
3 67 248 247
3 248 68 242
3 247 242 64
3 242 247 248
3 16 250 255
3 250 70 249
3 255 249 72
3 249 255 250
3 70 205 252
3 205 17 251
3 252 251 69
3 251 252 205
3 72 254 253
3 254 69 272
3 253 272 22
3 272 253 254
3 69 254 252
3 254 72 249
3 252 249 70
3 249 252 254
3 16 255 245
3 255 72 261
3 245 261 67
3 261 245 255
3 72 253 257
3 253 22 256
3 257 256 71
3 256 257 253
3 67 260 259
3 260 71 258
3 259 258 21
3 258 259 260
3 71 260 257
3 260 67 261
3 257 261 72
3 261 257 260
3 17 263 268
3 263 74 262
3 268 262 76
3 262 268 263
3 74 217 265
3 217 18 264
3 265 264 73
3 264 265 217
3 76 267 266
3 267 73 286
3 266 286 23
3 286 266 267
3 73 267 265
3 267 76 262
3 265 262 74
3 262 265 267
3 17 268 251
3 268 76 274
3 251 274 69
3 274 251 268
3 76 266 270
3 266 23 269
3 270 269 75
3 269 270 266
3 69 273 272
3 273 75 271
3 272 271 22
3 271 272 273
3 75 273 270
3 273 69 274
3 270 274 76
3 274 270 273
3 18 276 282
3 276 78 275
3 282 275 80
3 275 282 276
3 78 230 278
3 230 19 277
3 278 277 77
3 277 278 230
3 80 281 280
3 281 77 279
3 280 279 24
3 279 280 281
3 77 281 278
3 281 80 275
3 278 275 78
3 275 278 281
3 18 282 264
3 282 80 288
3 264 288 73
3 288 264 282
3 80 280 284
3 280 24 283
3 284 283 79
3 283 284 280
3 73 287 286
3 287 79 285
3 286 285 23
3 285 286 287
3 79 287 284
3 287 73 288
3 284 288 80
3 288 284 287
2 0 82
2 82 26
2 26 85
2 85 1
2 27 88
2 88 0
2 5 91
2 91 27
2 1 96
2 96 30
2 30 99
2 99 2
2 2 109
2 109 33
2 33 112
2 112 3
2 3 121
2 121 36
2 36 124
2 124 4
2 4 130
2 130 37
2 37 131
2 131 9
2 40 141
2 141 5
2 10 144
2 144 40
2 9 174
2 174 48
2 48 176
2 176 14
2 53 191
2 191 10
2 15 194
2 194 53
2 14 224
2 224 61
2 61 226
2 226 19
2 65 235
2 235 15
2 20 239
2 239 65
2 68 243
2 243 20
2 21 246
2 246 68
2 22 256
2 256 71
2 71 258
2 258 21
2 23 269
2 269 75
2 75 271
2 271 22
2 19 277
2 277 77
2 77 279
2 279 24
2 24 283
2 283 79
2 79 285
2 285 23

CELL_TYPES 576
5 5 5 5 5 5 5 5 5 5 5 5 5 5 5 5 5 5 5 5 5 5 5 5 5 5 5 5 5 5 5 5 5 5 5 5 5 5 5 5 5 5 5 5 5 5 5 5 5 5 5 5 5 5 5 5 5 5 5 5 5 5 5 5 5 5 5 5 5 5 5 5 5 5 5 5 5 5 5 5 5 5 5 5 5 5 5 5 5 5 5 5 5 5 5 5 5 5 5 5 5 5 5 5 5 5 5 5 5 5 5 5 5 5 5 5 5 5 5 5 5 5 5 5 5 5 5 5 5 5 5 5 5 5 5 5 5 5 5 5 5 5 5 5 5 5 5 5 5 5 5 5 5 5 5 5 5 5 5 5 5 5 5 5 5 5 5 5 5 5 5 5 5 5 5 5 5 5 5 5 5 5 5 5 5 5 5 5 5 5 5 5 5 5 5 5 5 5 5 5 5 5 5 5 5 5 5 5 5 5 5 5 5 5 5 5 5 5 5 5 5 5 5 5 5 5 5 5 5 5 5 5 5 5 5 5 5 5 5 5 5 5 5 5 5 5 5 5 5 5 5 5 5 5 5 5 5 5 5 5 5 5 5 5 5 5 5 5 5 5 5 5 5 5 5 5 5 5 5 5 5 5 5 5 5 5 5 5 5 5 5 5 5 5 5 5 5 5 5 5 5 5 5 5 5 5 5 5 5 5 5 5 5 5 5 5 5 5 5 5 5 5 5 5 5 5 5 5 5 5 5 5 5 5 5 5 5 5 5 5 5 5 5 5 5 5 5 5 5 5 5 5 5 5 5 5 5 5 5 5 5 5 5 5 5 5 5 5 5 5 5 5 5 5 5 5 5 5 5 5 5 5 5 5 5 5 5 5 5 5 5 5 5 5 5 5 5 5 5 5 5 5 5 5 5 5 5 5 5 5 5 5 5 5 5 5 5 5 5 5 5 5 5 5 5 5 5 5 5 5 5 5 5 5 5 5 5 5 5 5 5 5 5 5 5 5 5 5 5 5 5 5 5 5 5 5 5 5 5 5 5 5 5 5 5 5 5 5 5 5 5 5 5 5 5 5 5 5 5 5 5 5 5 5 5 5 5 5 5 5 5 5 5 5 5 5 5 5 5 5 5 5 5 5 5 5 5 5 5 5 5 5 3 3 3 3 3 3 3 3 3 3 3 3 3 3 3 3 3 3 3 3 3 3 3 3 3 3 3 3 3 3 3 3 3 3 3 3 3 3 3 3 3 3 3 3 3 3 3 3 3 3 3 3 3 3 3 3 3 3 3 3 3 3 3 3 
CELL_DATA 576
Scalars  Label int 1
LOOKUP_TABLE FreeFempp_table
0
0
0
0
0
0
0
0
0
0
0
0
0
0
0
0
0
0
0
0
0
0
0
0
0
0
0
0
0
0
0
0
0
0
0
0
0
0
0
0
0
0
0
0
0
0
0
0
0
0
0
0
0
0
0
0
0
0
0
0
0
0
0
0
0
0
0
0
0
0
0
0
0
0
0
0
0
0
0
0
0
0
0
0
0
0
0
0
0
0
0
0
0
0
0
0
0
0
0
0
0
0
0
0
0
0
0
0
0
0
0
0
0
0
0
0
0
0
0
0
0
0
0
0
0
0
0
0
0
0
0
0
0
0
0
0
0
0
0
0
0
0
0
0
0
0
0
0
0
0
0
0
0
0
0
0
0
0
0
0
0
0
0
0
0
0
0
0
0
0
0
0
0
0
0
0
0
0
0
0
0
0
0
0
0
0
0
0
0
0
0
0
0
0
0
0
0
0
0
0
0
0
0
0
0
0
0
0
0
0
0
0
0
0
0
0
0
0
0
0
0
0
0
0
0
0
0
0
0
0
0
0
0
0
0
0
0
0
0
0
0
0
0
0
0
0
0
0
0
0
0
0
0
0
0
0
0
0
0
0
0
0
0
0
0
0
0
0
0
0
0
0
0
0
0
0
0
0
0
0
0
0
0
0
0
0
0
0
0
0
0
0
0
0
0
0
0
0
0
0
0
0
0
0
0
0
0
0
0
0
0
0
0
0
0
0
0
0
0
0
0
0
0
0
0
0
0
0
0
0
0
0
0
0
0
0
0
0
0
0
0
0
0
0
0
0
0
0
0
0
0
0
0
0
0
0
0
0
0
0
0
0
0
0
0
0
0
0
0
0
0
0
0
0
0
0
0
0
0
0
0
0
0
0
0
0
0
0
0
0
0
0
0
0
0
0
0
0
0
0
0
0
0
0
0
0
0
0
0
0
0
0
0
0
0
0
0
0
0
0
0
0
0
0
0
0
0
0
0
0
0
0
0
0
0
0
0
0
0
0
0
0
0
0
0
0
0
0
0
0
0
0
0
0
0
0
0
0
0
0
0
0
0
0
0
0
0
0
0
0
0
0
0
0
0
0
0
0
0
0
0
0
0
0
0
0
0
0
0
0
0
0
0
0
0
0
0
0
0
0
0
0
0
0
0
0
0
0
0
0
0
0
1
1
1
1
4
4
4
4
1
1
1
1
1
1
1
1
1
1
1
1
2
2
2
2
4
4
4
4
2
2
2
2
4
4
4
4
2
2
2
2
4
4
4
4
3
3
3
3
3
3
3
3
3
3
3
3
2
2
2
2
3
3
3
3

LOOKUP_TABLE FreeFempp_table 5
1.00000000 0.00000000 0.00000000 1.00000000
1.00000000 1.00000000 0.00000000 1.00000000
1.00000000 0.00000000 1.00000000 1.00000000
0.00000000 1.00000000 0.00000000 1.00000000
0.00000000 1.00000000 1.00000000 1.00000000

FIELD FieldData 1
Pressure 1 576 float
3.83686158e-04 9.74008755e-04 6.16675185e-04 7.24016747e-04 1.54709944e-03 2.06789398e-03 1.01714407e-03 1.54727930e-03 9.60356905e-04 1.11864740e-03 1.22519513e-03 1.13432086e-03 1.19586277e-03 9.43552295e-04 1.15014939e-03 8.21546768e-04 2.64490955e-04 6.51077833e-04 3.42398504e-04 4.36471018e-04 9.44937055e-04 1.19494519e-03 1.03975704e-03 1.09531183e-03 4.89939121e-04 8.46739742e-04 6.58565550e-04 8.85430083e-04 9.65024286e-04 6.75121380e-04 7.98123598e-04 7.18826486e-04 2.50974763e-03 2.85386015e-03 1.39610434e-03 2.20937096e-03 3.08653153e-03 3.19860154e-03 1.57483399e-03 2.52299057e-03 1.33046950e-03 1.29402266e-03 1.26564526e-03 1.37639733e-03 1.65146205e-03 1.63084629e-03 2.41447939e-03 1.51818839e-03 1.91603752e-03 1.54545542e-03 1.39867712e-03 1.21390715e-03 1.39948924e-03 1.28625438e-03 1.34636729e-03 1.33801228e-03 1.27616548e-03 1.35100202e-03 1.29998242e-03 1.31626544e-03 1.35503092e-03 1.24011969e-03 1.31218508e-03 1.36561238e-03 3.18540842e-03 3.04632401e-03 1.47836527e-03 2.43439293e-03 2.78318254e-03 2.40119174e-03 1.07162795e-03 1.92558719e-03 9.20175225e-04 8.20976740e-04 7.37539667e-04 8.41109199e-04 1.06581848e-03 1.31524645e-03 2.23432691e-03 1.31207041e-03 2.53021880e-03 1.49441941e-03 1.60601677e-03 1.56273611e-03 9.69158718e-04 8.54844402e-04 9.87941632e-04 8.51440709e-04 1.29660394e-03 1.09036744e-03 1.17244083e-03 1.14077143e-03 9.68258828e-04 1.20410940e-03 1.06352533e-03 1.16062863e-03 2.09099241e-03 1.56111724e-03 1.07510376e-03 1.58820185e-03 9.82189900e-04 3.87588138e-04 6.32198004e-04 7.26786908e-04 1.19448081e-03 1.01789297e-03 1.37548533e-03 1.18695432e-03 9.60794394e-04 1.22994813e-03 1.15431217e-03 8.45589268e-04 1.27373182e-03 9.74601950e-04 1.10658247e-03 1.24329969e-03 6.62330480e-04 2.68494157e-04 3.52637435e-04 4.41938115e-04 9.23203828e-04 5.20579517e-04 7.46002595e-04 9.34885466e-04 6.93082809e-04 1.09231879e-03 8.43734480e-04 7.45093334e-04 1.07925886e-03 1.11818674e-03 1.25975488e-03 9.85778635e-04 1.21721707e-03 1.31873530e-03 1.39865885e-03 1.28113187e-03 1.42360432e-03 1.46486517e-03 1.51716999e-03 1.43179949e-03 1.36254181e-03 1.26224163e-03 1.15340378e-03 1.32674281e-03 8.28362419e-04 1.12004287e-03 9.92339337e-04 1.26068515e-03 1.36008265e-03 1.48691877e-03 1.44490367e-03 1.50735665e-03 1.14755379e-03 1.35794503e-03 1.29236316e-03 1.58480089e-03 1.50620681e-03 1.42955279e-03 1.38934585e-03 1.24474685e-03 1.37988129e-03 1.38650672e-03 1.40342233e-03 1.37308356e-03 1.33596954e-03 1.22996874e-03 1.18158013e-03 1.23938429e-03 1.29008060e-03 1.12058653e-03 1.04766048e-03 1.13334775e-03 1.19161268e-03 1.31908874e-03 1.33388292e-03 1.31996267e-03 1.35538692e-03 1.39168603e-03 1.40646158e-03 1.42906117e-03 1.29248027e-03 1.06332754e-03 1.25256251e-03 1.24676432e-03 1.44484115e-03 1.38947624e-03 1.46865193e-03 1.48419221e-03 1.39400759e-03 1.46382349e-03 1.40584796e-03 1.39771774e-03 1.07274717e-03 8.96253739e-04 8.18053319e-04 1.05342339e-03 7.62337062e-04 6.14611723e-04 5.36594773e-04 8.11422651e-04 5.77886181e-04 5.56318613e-04 5.60767774e-04 7.21819582e-04 7.35468522e-04 8.78237246e-04 9.44741012e-04 6.68831519e-04 1.12564710e-03 9.94609203e-04 1.07745954e-03 9.93741211e-04 8.00387235e-04 7.19225907e-04 7.15466740e-04 5.57805062e-04 1.01781019e-03 8.46555573e-04 9.49170731e-04 8.04375799e-04 6.46003929e-04 9.03969107e-04 7.34592206e-04 9.24689230e-04 4.36711096e-04 2.64447648e-04 3.95235809e-04 5.84814290e-04 5.65117283e-04 8.82668421e-04 1.01944001e-03 8.05393676e-04 8.56967235e-04 1.16871146e-03 1.31562271e-03 1.16525555e-03 9.85992141e-04 6.79201912e-04 5.43927075e-04 7.03205762e-04 6.71329442e-04 6.19086437e-04 6.85271400e-04 4.64276585e-04 8.35171959e-04 1.33903825e-03 9.97009920e-04 1.00877008e-03 6.99917960e-04 6.77694508e-04 7.09158892e-04 5.37750428e-04 7.13705143e-04 5.13968989e-04 5.55657374e-04 6.39448874e-04 1.72602327e-03 1.61135674e-03 1.71370595e-03 1.45898981e-03 1.57947734e-03 1.55682093e-03 1.59143633e-03 1.52669987e-03 1.75532757e-03 1.64817472e-03 1.77495461e-03 1.55333674e-03 1.54916756e-03 1.57206552e-03 1.51562470e-03 1.64998532e-03 1.42660283e-03 1.55042903e-03 1.55518029e-03 1.85621367e-03 1.62126427e-03 1.56473473e-03 1.70961441e-03 1.95582327e-03 1.69931457e-03 1.80280558e-03 1.90243730e-03 2.13575200e-03 2.06287601e-03 1.98817835e-03 1.84658717e-03 1.64733524e-03 1.49096909e-03 1.36843696e-03 1.33089744e-03 1.36651855e-03 1.19056029e-03 9.63524741e-04 8.68966861e-04 9.81929712e-04 1.04357558e-03 7.64886092e-04 6.52338145e-04 7.98226392e-04 8.89794203e-04 1.13298546e-03 1.19935686e-03 1.12234126e-03 1.47695665e-03 1.32798951e-03 1.46772643e-03 1.48830225e-03 1.05355808e-03 7.09024258e-04 9.62213555e-04 9.56003321e-04 1.43718778e-03 1.20201253e-03 1.39295845e-03 1.51754986e-03 1.23985123e-03 1.48970075e-03 1.28596299e-03 1.27235474e-03 6.96478412e-04 5.52407291e-04 4.54494148e-04 7.61394796e-04 5.36553154e-04 5.55536186e-04 5.43391041e-04 7.09397777e-04 4.75386536e-04 5.41196612e-04 6.85172097e-04 6.67239539e-04 6.92129135e-04 6.43021020e-04 6.73077535e-04 5.08909114e-04 8.72502220e-04 6.70132169e-04 7.88602920e-04 6.01880485e-04 6.05564623e-04 6.45665161e-04 5.60496643e-04 4.36410366e-04 6.98346470e-04 4.73248598e-04 6.02670887e-04 4.00438061e-04 3.51460971e-04 5.02812327e-04 4.03686136e-04 5.73753903e-04 5.61709923e-04 8.65380571e-04 1.00908079e-03 8.33749073e-04 1.15228072e-03 1.45216554e-03 1.57522364e-03 1.50153425e-03 1.40581059e-03 1.68328895e-03 1.77543599e-03 1.78237085e-03 1.64989091e-03 1.29855878e-03 1.15295907e-03 1.28508569e-03 7.12336798e-04 9.82722966e-04 7.08480249e-04 7.11813627e-04 1.43179006e-03 1.89744646e-03 1.55119726e-03 1.51366449e-03 8.19100707e-04 1.25173887e-03 9.58161429e-04 9.92800226e-04 1.26803759e-03 8.55797203e-04 1.14356214e-03 1.12252473e-03 2.02028290e-03 1.76368188e-03 1.97635056e-03 2.08150968e-03 1.53665419e-03 1.33934210e-03 1.59165135e-03 1.64258841e-03 2.00358033e-03 1.85605313e-03 2.09788838e-03 2.10470799e-03 1.83049252e-03 2.09677825e-03 1.89185399e-03 1.76261959e-03 2.09693075e-03 1.84891536e-03 1.94278953e-03 2.04750034e-03 1.58877682e-03 1.36131165e-03 1.36918889e-03 1.45191781e-03 1.79547630e-03 1.46861677e-03 1.64732896e-03 1.71100046e-03 1.58318772e-03 1.91627955e-03 1.72004022e-03 1.64224289e-03 1.56129710e-03 1.19097205e-03 1.13281887e-03 1.12902455e-03 8.61010281e-04 5.33190672e-04 4.13960632e-04 6.13407872e-04 6.94960938e-04 3.15962796e-04 2.70222285e-04 3.82667669e-04 5.09818143e-04 7.52242224e-04 8.61594803e-04 7.64725439e-04 1.37338869e-03 1.05454063e-03 1.36821461e-03 1.56553451e-03 6.36992860e-04 1.83243552e-04 5.48296317e-04 6.95031718e-04 1.34608301e-03 9.35557706e-04 1.35512603e-03 1.51640328e-03 1.11082767e-03 1.53635652e-03 1.08946941e-03 9.76145442e-04 2.95831152e-04 2.94901751e-04 2.98004830e-04 4.00581746e-04 4.98731155e-04 8.25666066e-04 9.68055392e-04 7.85676821e-04 8.01343878e-04 1.13191723e-03 1.34478672e-03 1.06751116e-03 9.22654057e-04 6.02415530e-04 5.06210839e-04 6.44476328e-04 5.02064941e-04 3.31889110e-04 3.93849739e-04 1.89632425e-04 7.54993642e-04 1.25661248e-03 9.39803198e-04 9.82773607e-04 2.63882102e-04 5.88362338e-04 2.15258187e-04 1.59898103e-04 5.82684297e-04 1.07226610e-04 4.41063603e-04 4.16059891e-04 1.12369470e-03 1.38372229e-03 1.50031305e-03 1.36934128e-03 1.60963426e-03 1.85160257e-03 1.91503810e-03 1.99290481e-03 1.82565500e-03 1.98133243e-03 2.09024595e-03 2.09371187e-03 2.06299638e-03 1.74215576e-03 1.65525393e-03 1.70238456e-03 1.08905719e-03 1.47614849e-03 1.21343776e-03 1.25653332e-03 1.81558670e-03 2.08926294e-03 1.92225527e-03 2.03833450e-03 1.34389824e-03 1.74666010e-03 1.52761699e-03 1.65369629e-03 1.89255492e-03 1.41975365e-03 1.65266765e-03 1.58396154e-03 3.83686158e-04 9.74008755e-04 1.54709944e-03 2.06789398e-03 3.42398504e-04 2.64490955e-04 6.58565550e-04 4.89939121e-04 2.50974763e-03 2.85386015e-03 3.08653153e-03 3.19860154e-03 3.18540842e-03 3.04632401e-03 2.78318254e-03 2.40119174e-03 2.09099241e-03 1.56111724e-03 9.82189900e-04 3.87588138e-04 2.68494157e-04 3.52637435e-04 5.20579517e-04 7.46002595e-04 9.92339337e-04 8.28362419e-04 1.29236316e-03 1.14755379e-03 8.82668421e-04 1.01944001e-03 1.16871146e-03 1.31562271e-03 1.55518029e-03 1.42660283e-03 1.90243730e-03 1.69931457e-03 1.45216554e-03 1.57522364e-03 1.68328895e-03 1.77543599e-03 1.97635056e-03 2.02028290e-03 2.09788838e-03 2.00358033e-03 1.94278953e-03 2.09693075e-03 1.64732896e-03 1.79547630e-03 1.83243552e-04 5.48296317e-04 9.35557706e-04 1.35512603e-03 1.25661248e-03 9.39803198e-04 5.88362338e-04 2.15258187e-04 1.85160257e-03 1.91503810e-03 1.98133243e-03 2.09024595e-03 2.08926294e-03 1.92225527e-03 1.74666010e-03 1.52761699e-03 
POINT_DATA 289
FIELD FieldData 2
Velocity 3 289 float