# vtk DataFile Version 2.0
./pics/Error_1_6.vtk, Created by Freefem++ 
ASCII
DATASET UNSTRUCTURED_GRID
POINTS 289 float
0 0 0
0.25 0 0
0.5 0 0
0.75 0 0
1 0 0
0 0.25 0
0.25 0.25 0
0.5 0.25 0
0.75 0.25 0
1 0.25 0
0 0.5 0
0.25 0.5 0
0.5 0.5 0
0.75 0.5 0
1 0.5 0
0 0.75 0
0.25 0.75 0
0.5 0.75 0
0.75 0.75 0
1 0.75 0
0 1 0
0.25 1 0
0.5 1 0
0.75 1 0
1 1 0
0.25 0.125 0
0.125 0 0
0 0.125 0
0.125 0.125 0
0.5 0.125 0
0.375 0 0
0.375 0.125 0
0.75 0.125 0
0.625 0 0
0.625 0.125 0
0.875 0.125 0
0.875 0 0
1 0.125 0
0.25 0.375 0
0.125 0.25 0
0 0.375 0
0.125 0.375 0
0.5 0.375 0
0.375 0.25 0
0.375 0.375 0
0.75 0.375 0
0.625 0.25 0
0.625 0.375 0
1 0.375 0
0.875 0.25 0
0.875 0.375 0
0.25 0.625 0
0.125 0.5 0
0 0.625 0
0.125 0.625 0
0.5 0.625 0
0.375 0.5 0
0.375 0.625 0
0.75 0.625 0
0.625 0.5 0
0.625 0.625 0
1 0.625 0
0.875 0.5 0
0.875 0.625 0
0.125 0.875 0
0 0.875 0
0.125 0.75 0
0.25 0.875 0
0.125 1 0
0.5 0.875 0
0.375 0.75 0
0.375 1 0
0.375 0.875 0
0.75 0.875 0
0.625 0.75 0
0.625 1 0
0.625 0.875 0
1 0.875 0
0.875 0.75 0
0.875 1 0
0.875 0.875 0
0.125 0.0625 0
0.0625 0 0
0.25 0.0625 0
0.1875 0.0625 0
0.1875 0 0
0.1875 0.1875 0
0.1875 0.125 0
0 0.0625 0
0.0625 0.0625 0
0.1875 0.25 0
0 0.1875 0
0.0625 0.1875 0
0.0625 0.125 0
0.125 0.1875 0
0.375 0.0625 0
0.3125 0 0
0.5 0.0625 0
0.4375 0.0625 0
0.4375 0 0
0.4375 0.1875 0
0.4375 0.125 0
0.3125 0.0625 0
0.4375 0.25 0
0.25 0.1875 0
0.3125 0.1875 0
0.3125 0.125 0
0.375 0.1875 0
0.625 0.0625 0
0.5625 0 0
0.75 0.0625 0
0.6875 0.0625 0
0.6875 0 0
0.6875 0.1875 0
0.6875 0.125 0
0.5625 0.0625 0
0.6875 0.25 0
0.5 0.1875 0
0.5625 0.1875 0
0.5625 0.125 0
0.625 0.1875 0
0.8125 0 0
0.9375 0.0625 0
0.875 0.0625 0
0.9375 0 0
0.75 0.1875 0
0.8125 0.125 0
0.8125 0.0625 0
0.875 0.1875 0
0.8125 0.1875 0
1 0.0625 0
1 0.1875 0
0.9375 0.25 0
0.9375 0.125 0
0.9375 0.1875 0
0.125 0.3125 0
0.0625 0.25 0
0.25 0.3125 0
0.1875 0.3125 0
0.1875 0.4375 0
0.1875 0.375 0
0 0.3125 0
0.0625 0.3125 0
0.1875 0.5 0
0 0.4375 0
0.0625 0.4375 0
0.0625 0.375 0
0.125 0.4375 0
0.375 0.3125 0
0.3125 0.25 0
0.5 0.3125 0
0.4375 0.3125 0
0.4375 0.4375 0
0.4375 0.375 0
0.3125 0.3125 0
0.4375 0.5 0
0.25 0.4375 0
0.3125 0.4375 0
0.3125 0.375 0
0.375 0.4375 0
0.625 0.3125 0
0.5625 0.25 0
0.75 0.3125 0
0.6875 0.3125 0
0.6875 0.4375 0
0.6875 0.375 0
0.5625 0.3125 0
0.6875 0.5 0
0.5 0.4375 0
0.5625 0.4375 0
0.5625 0.375 0
0.625 0.4375 0
0.875 0.3125 0
0.8125 0.25 0
1 0.3125 0
0.9375 0.3125 0
1 0.4375 0
0.9375 0.4375 0
0.9375 0.375 0
0.8125 0.3125 0
0.9375 0.5 0
0.75 0.4375 0
0.8125 0.4375 0
0.8125 0.375 0
0.875 0.4375 0
0.125 0.5625 0
0.0625 0.5 0
0.25 0.5625 0
0.1875 0.5625 0
0.1875 0.6875 0
0.1875 0.625 0
0 0.5625 0
0.0625 0.5625 0
0.1875 0.75 0
0 0.6875 0
0.0625 0.6875 0
0.0625 0.625 0
0.125 0.6875 0
0.375 0.5625 0
0.3125 0.5 0
0.5 0.5625 0
0.4375 0.5625 0
0.4375 0.6875 0
0.4375 0.625 0
0.3125 0.5625 0
0.4375 0.75 0
0.25 0.6875 0
0.3125 0.6875 0
0.3125 0.625 0
0.375 0.6875 0
0.625 0.5625 0
0.5625 0.5 0
0.75 0.5625 0
0.6875 0.5625 0
0.6875 0.6875 0
0.6875 0.625 0
0.5625 0.5625 0
0.6875 0.75 0
0.5 0.6875 0
0.5625 0.6875 0
0.5625 0.625 0
0.625 0.6875 0
0.875 0.5625 0
0.8125 0.5 0
1 0.5625 0
0.9375 0.5625 0
1 0.6875 0
0.9375 0.6875 0
0.9375 0.625 0
0.8125 0.5625 0
0.9375 0.75 0
0.75 0.6875 0
0.8125 0.6875 0
0.8125 0.625 0
0.875 0.6875 0
0 0.8125 0
0.0625 0.75 0
0.1875 0.8125 0
0.125 0.8125 0
0 0.9375 0
0.0625 0.8125 0
0.0625 0.875 0
0.125 0.9375 0
0.0625 1 0
0.0625 0.9375 0
0.25 0.8125 0
0.1875 1 0
0.1875 0.875 0
0.1875 0.9375 0
0.375 0.8125 0
0.3125 0.75 0
0.5 0.8125 0
0.4375 0.8125 0
0.4375 0.9375 0
0.4375 0.875 0
0.3125 0.8125 0
0.4375 1 0
0.375 0.9375 0
0.3125 1 0
0.25 0.9375 0
0.3125 0.9375 0
0.3125 0.875 0
0.625 0.8125 0
0.5625 0.75 0
0.75 0.8125 0
0.6875 0.8125 0
0.6875 0.9375 0
0.6875 0.875 0
0.5625 0.8125 0
0.6875 1 0
0.625 0.9375 0
0.5625 1 0
0.5 0.9375 0
0.5625 0.9375 0
0.5625 0.875 0
0.875 0.8125 0
0.8125 0.75 0
1 0.8125 0
0.9375 0.8125 0
1 0.9375 0
0.9375 0.9375 0
0.9375 0.875 0
0.8125 0.8125 0
0.9375 1 0
0.875 0.9375 0
0.8125 1 0
0.75 0.9375 0
0.8125 0.9375 0
0.8125 0.875 0

CELLS 576 2240
3 0 82 89
3 82 26 81
3 89 81 28
3 81 89 82
3 26 85 84
3 85 1 83
3 84 83 25
3 83 84 85
3 28 87 86
3 87 25 104
3 86 104 6
3 104 86 87
3 25 87 84
3 87 28 81
3 84 81 26
3 81 84 87
3 0 89 88
3 89 28 93
3 88 93 27
3 93 88 89
3 28 86 94
3 86 6 90
3 94 90 39
3 90 94 86
3 27 92 91
3 92 39 136
3 91 136 5
3 136 91 92
3 39 92 94
3 92 27 93
3 94 93 28
3 93 94 92
3 1 96 102
3 96 30 95
3 102 95 31
3 95 102 96
3 30 99 98
3 99 2 97
3 98 97 29
3 97 98 99
3 31 101 100
3 101 29 117
3 100 117 7
3 117 100 101
3 29 101 98
3 101 31 95
3 98 95 30
3 95 98 101
3 1 102 83
3 102 31 106
3 83 106 25
3 106 83 102
3 31 100 107
3 100 7 103
3 107 103 43
3 103 107 100
3 25 105 104
3 105 43 149
3 104 149 6
3 149 104 105
3 43 105 107
3 105 25 106
3 107 106 31
3 106 107 105
3 2 109 115
3 109 33 108
3 115 108 34
3 108 115 109
3 33 112 111
3 112 3 110
3 111 110 32
3 110 111 112
3 34 114 113
3 114 32 125
3 113 125 8
3 125 113 114
3 32 114 111
3 114 34 108
3 111 108 33
3 108 111 114
3 2 115 97
3 115 34 119
3 97 119 29
3 119 97 115
3 34 113 120
3 113 8 116
3 120 116 46
3 116 120 113
3 29 118 117
3 118 46 161
3 117 161 7
3 161 117 118
3 46 118 120
3 118 29 119
3 120 119 34
3 119 120 118
3 3 121 110
3 121 36 127
3 110 127 32
3 127 110 121
3 36 124 123
3 124 4 122
3 123 122 35
3 122 123 124
3 32 126 125
3 126 35 129
3 125 129 8
3 129 125 126
3 35 126 123
3 126 32 127
3 123 127 36
3 127 123 126
3 8 129 173
3 129 35 128
3 173 128 49
3 128 173 129
3 35 122 133
3 122 4 130
3 133 130 37
3 130 133 122
3 49 134 132
3 134 37 131
3 132 131 9
3 131 132 134
3 37 134 133
3 134 49 128
3 133 128 35
3 128 133 134
3 5 136 142
3 136 39 135
3 142 135 41
3 135 142 136
3 39 90 138
3 90 6 137
3 138 137 38
3 137 138 90
3 41 140 139
3 140 38 156
3 139 156 11
3 156 139 140
3 38 140 138
3 140 41 135
3 138 135 39
3 135 138 140
3 5 142 141
3 142 41 146
3 141 146 40
3 146 141 142
3 41 139 147
3 139 11 143
3 147 143 52
3 143 147 139
3 40 145 144
3 145 52 186
3 144 186 10
3 186 144 145
3 52 145 147
3 145 40 146
3 147 146 41
3 146 147 145
3 6 149 154
3 149 43 148
3 154 148 44
3 148 154 149
3 43 103 151
3 103 7 150
3 151 150 42
3 150 151 103
3 44 153 152
3 153 42 168
3 152 168 12
3 168 152 153
3 42 153 151
3 153 44 148
3 151 148 43
3 148 151 153
3 6 154 137
3 154 44 158
3 137 158 38
3 158 137 154
3 44 152 159
3 152 12 155
3 159 155 56
3 155 159 152
3 38 157 156
3 157 56 199
3 156 199 11
3 199 156 157
3 56 157 159
3 157 38 158
3 159 158 44
3 158 159 157
3 7 161 166
3 161 46 160
3 166 160 47
3 160 166 161
3 46 116 163
3 116 8 162
3 163 162 45
3 162 163 116
3 47 165 164
3 165 45 181
3 164 181 13
3 181 164 165
3 45 165 163
3 165 47 160
3 163 160 46
3 160 163 165
3 7 166 150
3 166 47 170
3 150 170 42
3 170 150 166
3 47 164 171
3 164 13 167
3 171 167 59
3 167 171 164
3 42 169 168
3 169 59 211
3 168 211 12
3 211 168 169
3 59 169 171
3 169 42 170
3 171 170 47
3 170 171 169
3 8 173 179
3 173 49 172
3 179 172 50
3 172 179 173
3 49 132 175
3 132 9 174
3 175 174 48
3 174 175 132
3 50 178 177
3 178 48 176
3 177 176 14
3 176 177 178
3 48 178 175
3 178 50 172
3 175 172 49
3 172 175 178
3 8 179 162
3 179 50 183
3 162 183 45
3 183 162 179
3 50 177 184
3 177 14 180
3 184 180 62
3 180 184 177
3 45 182 181
3 182 62 223
3 181 223 13
3 223 181 182
3 62 182 184
3 182 45 183
3 184 183 50
3 183 184 182
3 10 186 192
3 186 52 185
3 192 185 54
3 185 192 186
3 52 143 188
3 143 11 187
3 188 187 51
3 187 188 143
3 54 190 189
3 190 51 206
3 189 206 16
3 206 189 190
3 51 190 188
3 190 54 185
3 188 185 52
3 185 188 190
3 10 192 191
3 192 54 196
3 191 196 53
3 196 191 192
3 54 189 197
3 189 16 193
3 197 193 66
3 193 197 189
3 53 195 194
3 195 66 236
3 194 236 15
3 236 194 195
3 66 195 197
3 195 53 196
3 197 196 54
3 196 197 195
3 11 199 204
3 199 56 198
3 204 198 57
3 198 204 199
3 56 155 201
3 155 12 200
3 201 200 55
3 200 201 155
3 57 203 202
3 203 55 218
3 202 218 17
3 218 202 203
3 55 203 201
3 203 57 198
3 201 198 56
3 198 201 203
3 11 204 187
3 204 57 208
3 187 208 51
3 208 187 204
3 57 202 209
3 202 17 205
3 209 205 70
3 205 209 202
3 51 207 206
3 207 70 250
3 206 250 16
3 250 206 207
3 70 207 209
3 207 51 208
3 209 208 57
3 208 209 207
3 12 211 216
3 211 59 210
3 216 210 60
3 210 216 211
3 59 167 213
3 167 13 212
3 213 212 58
3 212 213 167
3 60 215 214
3 215 58 231
3 214 231 18
3 231 214 215
3 58 215 213
3 215 60 210
3 213 210 59
3 210 213 215
3 12 216 200
3 216 60 220
3 200 220 55
3 220 200 216
3 60 214 221
3 214 18 217
3 221 217 74
3 217 221 214
3 55 219 218
3 219 74 263
3 218 263 17
3 263 218 219
3 74 219 221
3 219 55 220
3 221 220 60
3 220 221 219
3 13 223 229
3 223 62 222
3 229 222 63
3 222 229 223
3 62 180 225
3 180 14 224
3 225 224 61
3 224 225 180
3 63 228 227
3 228 61 226
3 227 226 19
3 226 227 228
3 61 228 225
3 228 63 222
3 225 222 62
3 222 225 228
3 13 229 212
3 229 63 233
3 212 233 58
3 233 212 229
3 63 227 234
3 227 19 230
3 234 230 78
3 230 234 227
3 58 232 231
3 232 78 276
3 231 276 18
3 276 231 232
3 78 232 234
3 232 58 233
3 234 233 63
3 233 234 232
3 15 236 235
3 236 66 240
3 235 240 65
3 240 235 236
3 66 193 238
3 193 16 237
3 238 237 64
3 237 238 193
3 65 241 239
3 241 64 244
3 239 244 20
3 244 239 241
3 64 241 238
3 241 65 240
3 238 240 66
3 240 238 241
3 20 244 243
3 244 64 242
3 243 242 68
3 242 243 244
3 64 237 247
3 237 16 245
3 247 245 67
3 245 247 237
3 68 248 246
3 248 67 259
3 246 259 21
3 259 246 248
3 67 248 247
3 248 68 242
3 247 242 64
3 242 247 248
3 16 250 255
3 250 70 249
3 255 249 72
3 249 255 250
3 70 205 252
3 205 17 251
3 252 251 69
3 251 252 205
3 72 254 253
3 254 69 272
3 253 272 22
3 272 253 254
3 69 254 252
3 254 72 249
3 252 249 70
3 249 252 254
3 16 255 245
3 255 72 261
3 245 261 67
3 261 245 255
3 72 253 257
3 253 22 256
3 257 256 71
3 256 257 253
3 67 260 259
3 260 71 258
3 259 258 21
3 258 259 260
3 71 260 257
3 260 67 261
3 257 261 72
3 261 257 260
3 17 263 268
3 263 74 262
3 268 262 76
3 262 268 263
3 74 217 265
3 217 18 264
3 265 264 73
3 264 265 217
3 76 267 266
3 267 73 286
3 266 286 23
3 286 266 267
3 73 267 265
3 267 76 262
3 265 262 74
3 262 265 267
3 17 268 251
3 268 76 274
3 251 274 69
3 274 251 268
3 76 266 270
3 266 23 269
3 270 269 75
3 269 270 266
3 69 273 272
3 273 75 271
3 272 271 22
3 271 272 273
3 75 273 270
3 273 69 274
3 270 274 76
3 274 270 273
3 18 276 282
3 276 78 275
3 282 275 80
3 275 282 276
3 78 230 278
3 230 19 277
3 278 277 77
3 277 278 230
3 80 281 280
3 281 77 279
3 280 279 24
3 279 280 281
3 77 281 278
3 281 80 275
3 278 275 78
3 275 278 281
3 18 282 264
3 282 80 288
3 264 288 73
3 288 264 282
3 80 280 284
3 280 24 283
3 284 283 79
3 283 284 280
3 73 287 286
3 287 79 285
3 286 285 23
3 285 286 287
3 79 287 284
3 287 73 288
3 284 288 80
3 288 284 287
2 0 82
2 82 26
2 26 85
2 85 1
2 27 88
2 88 0
2 5 91
2 91 27
2 1 96
2 96 30
2 30 99
2 99 2
2 2 109
2 109 33
2 33 112
2 112 3
2 3 121
2 121 36
2 36 124
2 124 4
2 4 130
2 130 37
2 37 131
2 131 9
2 40 141
2 141 5
2 10 144
2 144 40
2 9 174
2 174 48
2 48 176
2 176 14
2 53 191
2 191 10
2 15 194
2 194 53
2 14 224
2 224 61
2 61 226
2 226 19
2 65 235
2 235 15
2 20 239
2 239 65
2 68 243
2 243 20
2 21 246
2 246 68
2 22 256
2 256 71
2 71 258
2 258 21
2 23 269
2 269 75
2 75 271
2 271 22
2 19 277
2 277 77
2 77 279
2 279 24
2 24 283
2 283 79
2 79 285
2 285 23

CELL_TYPES 576
5 5 5 5 5 5 5 5 5 5 5 5 5 5 5 5 5 5 5 5 5 5 5 5 5 5 5 5 5 5 5 5 5 5 5 5 5 5 5 5 5 5 5 5 5 5 5 5 5 5 5 5 5 5 5 5 5 5 5 5 5 5 5 5 5 5 5 5 5 5 5 5 5 5 5 5 5 5 5 5 5 5 5 5 5 5 5 5 5 5 5 5 5 5 5 5 5 5 5 5 5 5 5 5 5 5 5 5 5 5 5 5 5 5 5 5 5 5 5 5 5 5 5 5 5 5 5 5 5 5 5 5 5 5 5 5 5 5 5 5 5 5 5 5 5 5 5 5 5 5 5 5 5 5 5 5 5 5 5 5 5 5 5 5 5 5 5 5 5 5 5 5 5 5 5 5 5 5 5 5 5 5 5 5 5 5 5 5 5 5 5 5 5 5 5 5 5 5 5 5 5 5 5 5 5 5 5 5 5 5 5 5 5 5 5 5 5 5 5 5 5 5 5 5 5 5 5 5 5 5 5 5 5 5 5 5 5 5 5 5 5 5 5 5 5 5 5 5 5 5 5 5 5 5 5 5 5 5 5 5 5 5 5 5 5 5 5 5 5 5 5 5 5 5 5 5 5 5 5 5 5 5 5 5 5 5 5 5 5 5 5 5 5 5 5 5 5 5 5 5 5 5 5 5 5 5 5 5 5 5 5 5 5 5 5 5 5 5 5 5 5 5 5 5 5 5 5 5 5 5 5 5 5 5 5 5 5 5 5 5 5 5 5 5 5 5 5 5 5 5 5 5 5 5 5 5 5 5 5 5 5 5 5 5 5 5 5 5 5 5 5 5 5 5 5 5 5 5 5 5 5 5 5 5 5 5 5 5 5 5 5 5 5 5 5 5 5 5 5 5 5 5 5 5 5 5 5 5 5 5 5 5 5 5 5 5 5 5 5 5 5 5 5 5 5 5 5 5 5 5 5 5 5 5 5 5 5 5 5 5 5 5 5 5 5 5 5 5 5 5 5 5 5 5 5 5 5 5 5 5 5 5 5 5 5 5 5 5 5 5 5 5 5 5 5 5 5 5 5 5 5 5 5 5 5 5 5 5 5 5 5 5 5 5 5 5 5 5 5 5 5 5 5 5 5 5 5 5 5 5 5 5 3 3 3 3 3 3 3 3 3 3 3 3 3 3 3 3 3 3 3 3 3 3 3 3 3 3 3 3 3 3 3 3 3 3 3 3 3 3 3 3 3 3 3 3 3 3 3 3 3 3 3 3 3 3 3 3 3 3 3 3 3 3 3 3 
CELL_DATA 576
Scalars  Label int 1
LOOKUP_TABLE FreeFempp_table
0
0
0
0
0
0
0
0
0
0
0
0
0
0
0
0
0
0
0
0
0
0
0
0
0
0
0
0
0
0
0
0
0
0
0
0
0
0
0
0
0
0
0
0
0
0
0
0
0
0
0
0
0
0
0
0
0
0
0
0
0
0
0
0
0
0
0
0
0
0
0
0
0
0
0
0
0
0
0
0
0
0
0
0
0
0
0
0
0
0
0
0
0
0
0
0
0
0
0
0
0
0
0
0
0
0
0
0
0
0
0
0
0
0
0
0
0
0
0
0
0
0
0
0
0
0
0
0
0
0
0
0
0
0
0
0
0
0
0
0
0
0
0
0
0
0
0
0
0
0
0
0
0
0
0
0
0
0
0
0
0
0
0
0
0
0
0
0
0
0
0
0
0
0
0
0
0
0
0
0
0
0
0
0
0
0
0
0
0
0
0
0
0
0
0
0
0
0
0
0
0
0
0
0
0
0
0
0
0
0
0
0
0
0
0
0
0
0
0
0
0
0
0
0
0
0
0
0
0
0
0
0
0
0
0
0
0
0
0
0
0
0
0
0
0
0
0
0
0
0
0
0
0
0
0
0
0
0
0
0
0
0
0
0
0
0
0
0
0
0
0
0
0
0
0
0
0
0
0
0
0
0
0
0
0
0
0
0
0
0
0
0
0
0
0
0
0
0
0
0
0
0
0
0
0
0
0
0
0
0
0
0
0
0
0
0
0
0
0
0
0
0
0
0
0
0
0
0
0
0
0
0
0
0
0
0
0
0
0
0
0
0
0
0
0
0
0
0
0
0
0
0
0
0
0
0
0
0
0
0
0
0
0
0
0
0
0
0
0
0
0
0
0
0
0
0
0
0
0
0
0
0
0
0
0
0
0
0
0
0
0
0
0
0
0
0
0
0
0
0
0
0
0
0
0
0
0
0
0
0
0
0
0
0
0
0
0
0
0
0
0
0
0
0
0
0
0
0
0
0
0
0
0
0
0
0
0
0
0
0
0
0
0
0
0
0
0
0
0
0
0
0
0
0
0
0
0
0
0
0
0
0
0
0
0
0
0
0
0
0
0
0
0
0
0
0
0
0
0
0
0
0
0
0
0
0
0
0
0
0
0
0
0
0
0
0
0
0
0
0
0
0
0
0
0
0
0
0
0
0
0
0
1
1
1
1
4
4
4
4
1
1
1
1
1
1
1
1
1
1
1
1
2
2
2
2
4
4
4
4
2
2
2
2
4
4
4
4
2
2
2
2
4
4
4
4
3
3
3
3
3
3
3
3
3
3
3
3
2
2
2
2
3
3
3
3

LOOKUP_TABLE FreeFempp_table 5
1.00000000 0.00000000 0.00000000 1.00000000
1.00000000 1.00000000 0.00000000 1.00000000
1.00000000 0.00000000 1.00000000 1.00000000
0.00000000 1.00000000 0.00000000 1.00000000
0.00000000 1.00000000 1.00000000 1.00000000

FIELD FieldData 1
Pressure 1 576 float
4.20033728e-04 1.04483194e-03 6.63793297e-04 7.90516555e-04 1.64239085e-03 2.18498847e-03 1.25228334e-03 1.74355332e-03 9.99887357e-04 1.15812221e-03 1.25548942e-03 1.20904029e-03 1.29891036e-03 1.02694123e-03 1.28049811e-03 9.37504868e-04 2.99433188e-04 7.17240851e-04 3.89739405e-04 4.44339239e-04 1.00776297e-03 1.23860838e-03 1.08033908e-03 1.13223388e-03 5.36195526e-04 8.92584794e-04 7.04859907e-04 8.92385375e-04 1.00640836e-03 6.78424258e-04 8.35521962e-04 7.75266730e-04 2.64579128e-03 3.00456234e-03 1.74374110e-03 2.46970705e-03 3.24668363e-03 3.36248451e-03 1.95341674e-03 2.81362887e-03 1.38359179e-03 1.35004544e-03 1.29950431e-03 1.47908705e-03 1.79428153e-03 1.77108217e-03 2.69489991e-03 1.88781891e-03 2.14760611e-03 1.67799066e-03 1.51867268e-03 1.52802654e-03 1.50029303e-03 1.34184270e-03 1.40156888e-03 1.37083733e-03 1.36250595e-03 1.40382547e-03 1.34871493e-03 1.34568149e-03 1.38608133e-03 1.28354831e-03 1.36083388e-03 1.46085955e-03 3.34698102e-03 3.19940038e-03 1.83180207e-03 2.71331682e-03 2.92262994e-03 2.52617197e-03 1.34275854e-03 2.15725810e-03 9.24441905e-04 7.78241432e-04 7.05315731e-04 7.86815188e-04 1.17602875e-03 1.43461337e-03 2.49169953e-03 1.63397379e-03 2.82050902e-03 1.62590912e-03 1.74597953e-03 1.93616783e-03 1.05022546e-03 8.18216300e-04 9.40683531e-04 8.34981678e-04 1.39706640e-03 1.05556578e-03 1.22600968e-03 1.17457029e-03 1.00028282e-03 1.26101670e-03 1.11866696e-03 1.25435507e-03 2.20761378e-03 1.65867922e-03 1.35071832e-03 1.78702059e-03 1.05505448e-03 4.24824539e-04 6.85932057e-04 8.07304808e-04 1.24839402e-03 1.07234332e-03 1.41360064e-03 1.26371277e-03 1.04738900e-03 1.32915250e-03 1.30874803e-03 1.00821571e-03 1.32977671e-03 1.05055491e-03 1.16847130e-03 1.27853325e-03 7.33086432e-04 3.04405927e-04 4.03547310e-04 4.51874832e-04 9.82486294e-04 5.71732526e-04 7.82805961e-04 9.27434361e-04 6.96262578e-04 1.11891609e-03 8.88801820e-04 8.14258470e-04 1.08901202e-03 1.16522447e-03 1.31141825e-03 1.02938258e-03 1.25687371e-03 1.34860480e-03 1.42930937e-03 1.31190976e-03 1.46855880e-03 1.49627542e-03 1.54975557e-03 1.45766907e-03 1.38951209e-03 1.29257527e-03 1.18550251e-03 1.36922323e-03 8.77632643e-04 1.16523623e-03 1.04556163e-03 1.27189606e-03 1.39059289e-03 1.51221373e-03 1.47603580e-03 1.55513070e-03 1.20475586e-03 1.40846823e-03 1.35353615e-03 1.59789377e-03 1.56579248e-03 1.44170190e-03 1.44494162e-03 1.29248423e-03 1.40678859e-03 1.41361228e-03 1.42938807e-03 1.40760886e-03 1.36374228e-03 1.25792215e-03 1.20742235e-03 1.27434230e-03 1.31494610e-03 1.14486751e-03 1.07037229e-03 1.15854200e-03 1.21958996e-03 1.34780153e-03 1.36923359e-03 1.34605868e-03 1.38810929e-03 1.42021384e-03 1.43409637e-03 1.45555416e-03 1.31861353e-03 1.08662259e-03 1.27695140e-03 1.27042423e-03 1.47068698e-03 1.41423824e-03 1.49331894e-03 1.51050428e-03 1.41846330e-03 1.49008294e-03 1.43099623e-03 1.42399920e-03 1.10011071e-03 8.96434649e-04 8.04133248e-04 1.02210918e-03 7.51011539e-04 6.00584201e-04 5.57905005e-04 7.86763674e-04 5.92633383e-04 5.73260942e-04 5.77677623e-04 7.33156921e-04 7.27077015e-04 8.55763792e-04 9.16137302e-04 6.59075216e-04 1.12594676e-03 9.70358844e-04 1.05266040e-03 1.01868866e-03 7.80210656e-04 7.28884246e-04 7.08885025e-04 5.77867322e-04 9.95569048e-04 8.26539181e-04 9.28428781e-04 8.25648720e-04 6.33502554e-04 9.27086745e-04 7.21063756e-04 9.03079228e-04 4.43236699e-04 3.22864595e-04 3.93943657e-04 5.69918775e-04 5.62321220e-04 8.70753953e-04 1.02673157e-03 7.92224484e-04 8.65367765e-04 1.18256337e-03 1.33397919e-03 1.16770191e-03 9.85067105e-04 6.83582504e-04 5.22358925e-04 7.09987711e-04 6.49841910e-04 6.14193559e-04 6.89402747e-04 4.84080025e-04 8.46920535e-04 1.34226948e-03 1.01239642e-03 1.02013431e-03 7.05823302e-04 6.83889084e-04 7.12852692e-04 5.50941972e-04 7.12524343e-04 5.26383927e-04 5.53073012e-04 6.36095065e-04 1.74057204e-03 1.67643197e-03 1.78694422e-03 1.51323772e-03 1.63225562e-03 1.59262656e-03 1.63499534e-03 1.55167421e-03 1.82178454e-03 1.69867312e-03 1.80053536e-03 1.59223168e-03 1.57615612e-03 1.60928245e-03 1.54807826e-03 1.71222887e-03 1.49244582e-03 1.61187467e-03 1.62715151e-03 1.87249912e-03 1.67277665e-03 1.62180548e-03 1.76952197e-03 1.97843579e-03 1.77242549e-03 1.87149993e-03 1.94159092e-03 2.11581332e-03 2.08353531e-03 1.99919846e-03 1.91916060e-03 1.72150438e-03 1.51871284e-03 1.39288092e-03 1.35721022e-03 1.38964248e-03 1.21323625e-03 9.84679325e-04 8.88776151e-04 1.00333907e-03 1.06730149e-03 7.83898286e-04 6.71624963e-04 8.04806419e-04 9.09149356e-04 1.15357782e-03 1.22194923e-03 1.14479719e-03 1.50039722e-03 1.34952972e-03 1.49094639e-03 1.52085477e-03 1.07235927e-03 6.91352703e-04 9.80238896e-04 9.83034959e-04 1.46682491e-03 1.22907106e-03 1.44034240e-03 1.55567820e-03 1.27692882e-03 1.52961968e-03 1.31695496e-03 1.29436597e-03 7.15278205e-04 5.41411631e-04 4.70053463e-04 7.42832548e-04 5.55403763e-04 5.71796147e-04 5.58194122e-04 7.16849638e-04 4.90810198e-04 5.38232736e-04 6.81853737e-04 6.69762492e-04 6.97273063e-04 6.52053044e-04 6.84244151e-04 5.26122691e-04 8.53053469e-04 6.53028081e-04 7.70324899e-04 5.96972532e-04 6.12273114e-04 6.43827196e-04 5.64189628e-04 4.50241205e-04 6.80945697e-04 4.69766499e-04 5.85479196e-04 3.92430025e-04 3.67068540e-04 4.92986757e-04 4.21011238e-04 5.58012573e-04 5.62136876e-04 8.66729359e-04 1.01324997e-03 8.43002694e-04 1.16766873e-03 1.47539785e-03 1.60351570e-03 1.50556176e-03 1.43001659e-03 1.71661051e-03 1.81385886e-03 1.78817753e-03 1.65484333e-03 1.32300693e-03 1.17265701e-03 1.30481075e-03 7.13200716e-04 9.95742274e-04 7.06512423e-04 7.07615633e-04 1.46097387e-03 1.90375745e-03 1.58488681e-03 1.54292991e-03 8.22303235e-04 1.27272622e-03 9.64477425e-04 9.94584989e-04 1.27915887e-03 8.54190439e-04 1.15078827e-03 1.13948563e-03 2.03999807e-03 1.82309560e-03 2.03620503e-03 2.05574767e-03 1.59591390e-03 1.36319676e-03 1.65092410e-03 1.65774545e-03 2.06870167e-03 1.92152336e-03 2.13857973e-03 2.12269789e-03 1.88663346e-03 2.10049795e-03 1.89173571e-03 1.83757453e-03 2.13769567e-03 1.91848911e-03 2.00475962e-03 2.06220988e-03 1.65405299e-03 1.38543395e-03 1.42362167e-03 1.46068551e-03 1.84691697e-03 1.51710515e-03 1.66106771e-03 1.68776803e-03 1.57734018e-03 1.91566686e-03 1.76490401e-03 1.71388593e-03 1.58449623e-03 1.23456086e-03 1.18613511e-03 1.16178824e-03 8.94107798e-04 5.54886879e-04 4.41574783e-04 5.88003488e-04 7.42717355e-04 3.47773981e-04 2.81332497e-04 3.39849183e-04 4.77137306e-04 7.74712651e-04 8.80233885e-04 8.07602948e-04 1.42591796e-03 1.09401275e-03 1.41854689e-03 1.58481556e-03 6.71729504e-04 1.95313653e-04 5.91586751e-04 7.09379092e-04 1.40196900e-03 9.88881686e-04 1.38764852e-03 1.50237896e-03 1.12229900e-03 1.55453803e-03 1.14529743e-03 1.02960155e-03 2.89594667e-04 3.09307768e-04 2.91021977e-04 4.05777246e-04 4.95094107e-04 8.27268464e-04 9.78091382e-04 7.87658966e-04 8.07114469e-04 1.14858116e-03 1.34437357e-03 1.08758069e-03 9.31526069e-04 6.05075096e-04 5.04802330e-04 6.46165165e-04 4.83489130e-04 3.33535310e-04 3.70513735e-04 1.85531477e-04 7.65149249e-04 1.27815176e-03 9.49469279e-04 9.80113167e-04 2.33858125e-04 5.85763832e-04 1.99973321e-04 1.51901448e-04 5.77433209e-04 8.34014791e-05 4.35223483e-04 4.16471739e-04 1.13141770e-03 1.40147307e-03 1.52986136e-03 1.39498559e-03 1.64606026e-03 1.89581944e-03 1.96683337e-03 1.99892023e-03 1.87893480e-03 2.03922810e-03 2.12888722e-03 2.10806634e-03 2.06872961e-03 1.78599230e-03 1.69328682e-03 1.74998282e-03 1.09952583e-03 1.50939205e-03 1.23153790e-03 1.27503031e-03 1.87114300e-03 2.12795101e-03 1.97832217e-03 2.05077231e-03 1.37553667e-03 1.79275207e-03 1.56100816e-03 1.65465206e-03 1.89474609e-03 1.44639309e-03 1.68983394e-03 1.63078867e-03 4.20033728e-04 1.04483194e-03 1.64239085e-03 2.18498847e-03 3.89739405e-04 2.99433188e-04 7.04859907e-04 5.36195526e-04 2.64579128e-03 3.00456234e-03 3.24668363e-03 3.36248451e-03 3.34698102e-03 3.19940038e-03 2.92262994e-03 2.52617197e-03 2.20761378e-03 1.65867922e-03 1.05505448e-03 4.24824539e-04 3.04405927e-04 4.03547310e-04 5.71732526e-04 7.82805961e-04 1.04556163e-03 8.77632643e-04 1.35353615e-03 1.20475586e-03 8.70753953e-04 1.02673157e-03 1.18256337e-03 1.33397919e-03 1.62715151e-03 1.49244582e-03 1.94159092e-03 1.77242549e-03 1.47539785e-03 1.60351570e-03 1.71661051e-03 1.81385886e-03 2.03620503e-03 2.03999807e-03 2.13857973e-03 2.06870167e-03 2.00475962e-03 2.13769567e-03 1.66106771e-03 1.84691697e-03 1.95313653e-04 5.91586751e-04 9.88881686e-04 1.38764852e-03 1.27815176e-03 9.49469279e-04 5.85763832e-04 1.99973321e-04 1.89581944e-03 1.96683337e-03 2.03922810e-03 2.12888722e-03 2.12795101e-03 1.97832217e-03 1.79275207e-03 1.56100816e-03 
POINT_DATA 289
FIELD FieldData 2
Velocity 3 289 float