# vtk DataFile Version 2.0
./pics/Error_1_7.vtk, Created by Freefem++ 
ASCII
DATASET UNSTRUCTURED_GRID
POINTS 289 float
0 0 0
0.25 0 0
0.5 0 0
0.75 0 0
1 0 0
0 0.25 0
0.25 0.25 0
0.5 0.25 0
0.75 0.25 0
1 0.25 0
0 0.5 0
0.25 0.5 0
0.5 0.5 0
0.75 0.5 0
1 0.5 0
0 0.75 0
0.25 0.75 0
0.5 0.75 0
0.75 0.75 0
1 0.75 0
0 1 0
0.25 1 0
0.5 1 0
0.75 1 0
1 1 0
0.25 0.125 0
0.125 0 0
0 0.125 0
0.125 0.125 0
0.5 0.125 0
0.375 0 0
0.375 0.125 0
0.75 0.125 0
0.625 0 0
0.625 0.125 0
0.875 0.125 0
0.875 0 0
1 0.125 0
0.25 0.375 0
0.125 0.25 0
0 0.375 0
0.125 0.375 0
0.5 0.375 0
0.375 0.25 0
0.375 0.375 0
0.75 0.375 0
0.625 0.25 0
0.625 0.375 0
1 0.375 0
0.875 0.25 0
0.875 0.375 0
0.25 0.625 0
0.125 0.5 0
0 0.625 0
0.125 0.625 0
0.5 0.625 0
0.375 0.5 0
0.375 0.625 0
0.75 0.625 0
0.625 0.5 0
0.625 0.625 0
1 0.625 0
0.875 0.5 0
0.875 0.625 0
0.125 0.875 0
0 0.875 0
0.125 0.75 0
0.25 0.875 0
0.125 1 0
0.5 0.875 0
0.375 0.75 0
0.375 1 0
0.375 0.875 0
0.75 0.875 0
0.625 0.75 0
0.625 1 0
0.625 0.875 0
1 0.875 0
0.875 0.75 0
0.875 1 0
0.875 0.875 0
0.125 0.0625 0
0.0625 0 0
0.25 0.0625 0
0.1875 0.0625 0
0.1875 0 0
0.1875 0.1875 0
0.1875 0.125 0
0 0.0625 0
0.0625 0.0625 0
0.1875 0.25 0
0 0.1875 0
0.0625 0.1875 0
0.0625 0.125 0
0.125 0.1875 0
0.375 0.0625 0
0.3125 0 0
0.5 0.0625 0
0.4375 0.0625 0
0.4375 0 0
0.4375 0.1875 0
0.4375 0.125 0
0.3125 0.0625 0
0.4375 0.25 0
0.25 0.1875 0
0.3125 0.1875 0
0.3125 0.125 0
0.375 0.1875 0
0.625 0.0625 0
0.5625 0 0
0.75 0.0625 0
0.6875 0.0625 0
0.6875 0 0
0.6875 0.1875 0
0.6875 0.125 0
0.5625 0.0625 0
0.6875 0.25 0
0.5 0.1875 0
0.5625 0.1875 0
0.5625 0.125 0
0.625 0.1875 0
0.8125 0 0
0.9375 0.0625 0
0.875 0.0625 0
0.9375 0 0
0.75 0.1875 0
0.8125 0.125 0
0.8125 0.0625 0
0.875 0.1875 0
0.8125 0.1875 0
1 0.0625 0
1 0.1875 0
0.9375 0.25 0
0.9375 0.125 0
0.9375 0.1875 0
0.125 0.3125 0
0.0625 0.25 0
0.25 0.3125 0
0.1875 0.3125 0
0.1875 0.4375 0
0.1875 0.375 0
0 0.3125 0
0.0625 0.3125 0
0.1875 0.5 0
0 0.4375 0
0.0625 0.4375 0
0.0625 0.375 0
0.125 0.4375 0
0.375 0.3125 0
0.3125 0.25 0
0.5 0.3125 0
0.4375 0.3125 0
0.4375 0.4375 0
0.4375 0.375 0
0.3125 0.3125 0
0.4375 0.5 0
0.25 0.4375 0
0.3125 0.4375 0
0.3125 0.375 0
0.375 0.4375 0
0.625 0.3125 0
0.5625 0.25 0
0.75 0.3125 0
0.6875 0.3125 0
0.6875 0.4375 0
0.6875 0.375 0
0.5625 0.3125 0
0.6875 0.5 0
0.5 0.4375 0
0.5625 0.4375 0
0.5625 0.375 0
0.625 0.4375 0
0.875 0.3125 0
0.8125 0.25 0
1 0.3125 0
0.9375 0.3125 0
1 0.4375 0
0.9375 0.4375 0
0.9375 0.375 0
0.8125 0.3125 0
0.9375 0.5 0
0.75 0.4375 0
0.8125 0.4375 0
0.8125 0.375 0
0.875 0.4375 0
0.125 0.5625 0
0.0625 0.5 0
0.25 0.5625 0
0.1875 0.5625 0
0.1875 0.6875 0
0.1875 0.625 0
0 0.5625 0
0.0625 0.5625 0
0.1875 0.75 0
0 0.6875 0
0.0625 0.6875 0
0.0625 0.625 0
0.125 0.6875 0
0.375 0.5625 0
0.3125 0.5 0
0.5 0.5625 0
0.4375 0.5625 0
0.4375 0.6875 0
0.4375 0.625 0
0.3125 0.5625 0
0.4375 0.75 0
0.25 0.6875 0
0.3125 0.6875 0
0.3125 0.625 0
0.375 0.6875 0
0.625 0.5625 0
0.5625 0.5 0
0.75 0.5625 0
0.6875 0.5625 0
0.6875 0.6875 0
0.6875 0.625 0
0.5625 0.5625 0
0.6875 0.75 0
0.5 0.6875 0
0.5625 0.6875 0
0.5625 0.625 0
0.625 0.6875 0
0.875 0.5625 0
0.8125 0.5 0
1 0.5625 0
0.9375 0.5625 0
1 0.6875 0
0.9375 0.6875 0
0.9375 0.625 0
0.8125 0.5625 0
0.9375 0.75 0
0.75 0.6875 0
0.8125 0.6875 0
0.8125 0.625 0
0.875 0.6875 0
0 0.8125 0
0.0625 0.75 0
0.1875 0.8125 0
0.125 0.8125 0
0 0.9375 0
0.0625 0.8125 0
0.0625 0.875 0
0.125 0.9375 0
0.0625 1 0
0.0625 0.9375 0
0.25 0.8125 0
0.1875 1 0
0.1875 0.875 0
0.1875 0.9375 0
0.375 0.8125 0
0.3125 0.75 0
0.5 0.8125 0
0.4375 0.8125 0
0.4375 0.9375 0
0.4375 0.875 0
0.3125 0.8125 0
0.4375 1 0
0.375 0.9375 0
0.3125 1 0
0.25 0.9375 0
0.3125 0.9375 0
0.3125 0.875 0
0.625 0.8125 0
0.5625 0.75 0
0.75 0.8125 0
0.6875 0.8125 0
0.6875 0.9375 0
0.6875 0.875 0
0.5625 0.8125 0
0.6875 1 0
0.625 0.9375 0
0.5625 1 0
0.5 0.9375 0
0.5625 0.9375 0
0.5625 0.875 0
0.875 0.8125 0
0.8125 0.75 0
1 0.8125 0
0.9375 0.8125 0
1 0.9375 0
0.9375 0.9375 0
0.9375 0.875 0
0.8125 0.8125 0
0.9375 1 0
0.875 0.9375 0
0.8125 1 0
0.75 0.9375 0
0.8125 0.9375 0
0.8125 0.875 0

CELLS 576 2240
3 0 82 89
3 82 26 81
3 89 81 28
3 81 89 82
3 26 85 84
3 85 1 83
3 84 83 25
3 83 84 85
3 28 87 86
3 87 25 104
3 86 104 6
3 104 86 87
3 25 87 84
3 87 28 81
3 84 81 26
3 81 84 87
3 0 89 88
3 89 28 93
3 88 93 27
3 93 88 89
3 28 86 94
3 86 6 90
3 94 90 39
3 90 94 86
3 27 92 91
3 92 39 136
3 91 136 5
3 136 91 92
3 39 92 94
3 92 27 93
3 94 93 28
3 93 94 92
3 1 96 102
3 96 30 95
3 102 95 31
3 95 102 96
3 30 99 98
3 99 2 97
3 98 97 29
3 97 98 99
3 31 101 100
3 101 29 117
3 100 117 7
3 117 100 101
3 29 101 98
3 101 31 95
3 98 95 30
3 95 98 101
3 1 102 83
3 102 31 106
3 83 106 25
3 106 83 102
3 31 100 107
3 100 7 103
3 107 103 43
3 103 107 100
3 25 105 104
3 105 43 149
3 104 149 6
3 149 104 105
3 43 105 107
3 105 25 106
3 107 106 31
3 106 107 105
3 2 109 115
3 109 33 108
3 115 108 34
3 108 115 109
3 33 112 111
3 112 3 110
3 111 110 32
3 110 111 112
3 34 114 113
3 114 32 125
3 113 125 8
3 125 113 114
3 32 114 111
3 114 34 108
3 111 108 33
3 108 111 114
3 2 115 97
3 115 34 119
3 97 119 29
3 119 97 115
3 34 113 120
3 113 8 116
3 120 116 46
3 116 120 113
3 29 118 117
3 118 46 161
3 117 161 7
3 161 117 118
3 46 118 120
3 118 29 119
3 120 119 34
3 119 120 118
3 3 121 110
3 121 36 127
3 110 127 32
3 127 110 121
3 36 124 123
3 124 4 122
3 123 122 35
3 122 123 124
3 32 126 125
3 126 35 129
3 125 129 8
3 129 125 126
3 35 126 123
3 126 32 127
3 123 127 36
3 127 123 126
3 8 129 173
3 129 35 128
3 173 128 49
3 128 173 129
3 35 122 133
3 122 4 130
3 133 130 37
3 130 133 122
3 49 134 132
3 134 37 131
3 132 131 9
3 131 132 134
3 37 134 133
3 134 49 128
3 133 128 35
3 128 133 134
3 5 136 142
3 136 39 135
3 142 135 41
3 135 142 136
3 39 90 138
3 90 6 137
3 138 137 38
3 137 138 90
3 41 140 139
3 140 38 156
3 139 156 11
3 156 139 140
3 38 140 138
3 140 41 135
3 138 135 39
3 135 138 140
3 5 142 141
3 142 41 146
3 141 146 40
3 146 141 142
3 41 139 147
3 139 11 143
3 147 143 52
3 143 147 139
3 40 145 144
3 145 52 186
3 144 186 10
3 186 144 145
3 52 145 147
3 145 40 146
3 147 146 41
3 146 147 145
3 6 149 154
3 149 43 148
3 154 148 44
3 148 154 149
3 43 103 151
3 103 7 150
3 151 150 42
3 150 151 103
3 44 153 152
3 153 42 168
3 152 168 12
3 168 152 153
3 42 153 151
3 153 44 148
3 151 148 43
3 148 151 153
3 6 154 137
3 154 44 158
3 137 158 38
3 158 137 154
3 44 152 159
3 152 12 155
3 159 155 56
3 155 159 152
3 38 157 156
3 157 56 199
3 156 199 11
3 199 156 157
3 56 157 159
3 157 38 158
3 159 158 44
3 158 159 157
3 7 161 166
3 161 46 160
3 166 160 47
3 160 166 161
3 46 116 163
3 116 8 162
3 163 162 45
3 162 163 116
3 47 165 164
3 165 45 181
3 164 181 13
3 181 164 165
3 45 165 163
3 165 47 160
3 163 160 46
3 160 163 165
3 7 166 150
3 166 47 170
3 150 170 42
3 170 150 166
3 47 164 171
3 164 13 167
3 171 167 59
3 167 171 164
3 42 169 168
3 169 59 211
3 168 211 12
3 211 168 169
3 59 169 171
3 169 42 170
3 171 170 47
3 170 171 169
3 8 173 179
3 173 49 172
3 179 172 50
3 172 179 173
3 49 132 175
3 132 9 174
3 175 174 48
3 174 175 132
3 50 178 177
3 178 48 176
3 177 176 14
3 176 177 178
3 48 178 175
3 178 50 172
3 175 172 49
3 172 175 178
3 8 179 162
3 179 50 183
3 162 183 45
3 183 162 179
3 50 177 184
3 177 14 180
3 184 180 62
3 180 184 177
3 45 182 181
3 182 62 223
3 181 223 13
3 223 181 182
3 62 182 184
3 182 45 183
3 184 183 50
3 183 184 182
3 10 186 192
3 186 52 185
3 192 185 54
3 185 192 186
3 52 143 188
3 143 11 187
3 188 187 51
3 187 188 143
3 54 190 189
3 190 51 206
3 189 206 16
3 206 189 190
3 51 190 188
3 190 54 185
3 188 185 52
3 185 188 190
3 10 192 191
3 192 54 196
3 191 196 53
3 196 191 192
3 54 189 197
3 189 16 193
3 197 193 66
3 193 197 189
3 53 195 194
3 195 66 236
3 194 236 15
3 236 194 195
3 66 195 197
3 195 53 196
3 197 196 54
3 196 197 195
3 11 199 204
3 199 56 198
3 204 198 57
3 198 204 199
3 56 155 201
3 155 12 200
3 201 200 55
3 200 201 155
3 57 203 202
3 203 55 218
3 202 218 17
3 218 202 203
3 55 203 201
3 203 57 198
3 201 198 56
3 198 201 203
3 11 204 187
3 204 57 208
3 187 208 51
3 208 187 204
3 57 202 209
3 202 17 205
3 209 205 70
3 205 209 202
3 51 207 206
3 207 70 250
3 206 250 16
3 250 206 207
3 70 207 209
3 207 51 208
3 209 208 57
3 208 209 207
3 12 211 216
3 211 59 210
3 216 210 60
3 210 216 211
3 59 167 213
3 167 13 212
3 213 212 58
3 212 213 167
3 60 215 214
3 215 58 231
3 214 231 18
3 231 214 215
3 58 215 213
3 215 60 210
3 213 210 59
3 210 213 215
3 12 216 200
3 216 60 220
3 200 220 55
3 220 200 216
3 60 214 221
3 214 18 217
3 221 217 74
3 217 221 214
3 55 219 218
3 219 74 263
3 218 263 17
3 263 218 219
3 74 219 221
3 219 55 220
3 221 220 60
3 220 221 219
3 13 223 229
3 223 62 222
3 229 222 63
3 222 229 223
3 62 180 225
3 180 14 224
3 225 224 61
3 224 225 180
3 63 228 227
3 228 61 226
3 227 226 19
3 226 227 228
3 61 228 225
3 228 63 222
3 225 222 62
3 222 225 228
3 13 229 212
3 229 63 233
3 212 233 58
3 233 212 229
3 63 227 234
3 227 19 230
3 234 230 78
3 230 234 227
3 58 232 231
3 232 78 276
3 231 276 18
3 276 231 232
3 78 232 234
3 232 58 233
3 234 233 63
3 233 234 232
3 15 236 235
3 236 66 240
3 235 240 65
3 240 235 236
3 66 193 238
3 193 16 237
3 238 237 64
3 237 238 193
3 65 241 239
3 241 64 244
3 239 244 20
3 244 239 241
3 64 241 238
3 241 65 240
3 238 240 66
3 240 238 241
3 20 244 243
3 244 64 242
3 243 242 68
3 242 243 244
3 64 237 247
3 237 16 245
3 247 245 67
3 245 247 237
3 68 248 246
3 248 67 259
3 246 259 21
3 259 246 248
3 67 248 247
3 248 68 242
3 247 242 64
3 242 247 248
3 16 250 255
3 250 70 249
3 255 249 72
3 249 255 250
3 70 205 252
3 205 17 251
3 252 251 69
3 251 252 205
3 72 254 253
3 254 69 272
3 253 272 22
3 272 253 254
3 69 254 252
3 254 72 249
3 252 249 70
3 249 252 254
3 16 255 245
3 255 72 261
3 245 261 67
3 261 245 255
3 72 253 257
3 253 22 256
3 257 256 71
3 256 257 253
3 67 260 259
3 260 71 258
3 259 258 21
3 258 259 260
3 71 260 257
3 260 67 261
3 257 261 72
3 261 257 260
3 17 263 268
3 263 74 262
3 268 262 76
3 262 268 263
3 74 217 265
3 217 18 264
3 265 264 73
3 264 265 217
3 76 267 266
3 267 73 286
3 266 286 23
3 286 266 267
3 73 267 265
3 267 76 262
3 265 262 74
3 262 265 267
3 17 268 251
3 268 76 274
3 251 274 69
3 274 251 268
3 76 266 270
3 266 23 269
3 270 269 75
3 269 270 266
3 69 273 272
3 273 75 271
3 272 271 22
3 271 272 273
3 75 273 270
3 273 69 274
3 270 274 76
3 274 270 273
3 18 276 282
3 276 78 275
3 282 275 80
3 275 282 276
3 78 230 278
3 230 19 277
3 278 277 77
3 277 278 230
3 80 281 280
3 281 77 279
3 280 279 24
3 279 280 281
3 77 281 278
3 281 80 275
3 278 275 78
3 275 278 281
3 18 282 264
3 282 80 288
3 264 288 73
3 288 264 282
3 80 280 284
3 280 24 283
3 284 283 79
3 283 284 280
3 73 287 286
3 287 79 285
3 286 285 23
3 285 286 287
3 79 287 284
3 287 73 288
3 284 288 80
3 288 284 287
2 0 82
2 82 26
2 26 85
2 85 1
2 27 88
2 88 0
2 5 91
2 91 27
2 1 96
2 96 30
2 30 99
2 99 2
2 2 109
2 109 33
2 33 112
2 112 3
2 3 121
2 121 36
2 36 124
2 124 4
2 4 130
2 130 37
2 37 131
2 131 9
2 40 141
2 141 5
2 10 144
2 144 40
2 9 174
2 174 48
2 48 176
2 176 14
2 53 191
2 191 10
2 15 194
2 194 53
2 14 224
2 224 61
2 61 226
2 226 19
2 65 235
2 235 15
2 20 239
2 239 65
2 68 243
2 243 20
2 21 246
2 246 68
2 22 256
2 256 71
2 71 258
2 258 21
2 23 269
2 269 75
2 75 271
2 271 22
2 19 277
2 277 77
2 77 279
2 279 24
2 24 283
2 283 79
2 79 285
2 285 23

CELL_TYPES 576
5 5 5 5 5 5 5 5 5 5 5 5 5 5 5 5 5 5 5 5 5 5 5 5 5 5 5 5 5 5 5 5 5 5 5 5 5 5 5 5 5 5 5 5 5 5 5 5 5 5 5 5 5 5 5 5 5 5 5 5 5 5 5 5 5 5 5 5 5 5 5 5 5 5 5 5 5 5 5 5 5 5 5 5 5 5 5 5 5 5 5 5 5 5 5 5 5 5 5 5 5 5 5 5 5 5 5 5 5 5 5 5 5 5 5 5 5 5 5 5 5 5 5 5 5 5 5 5 5 5 5 5 5 5 5 5 5 5 5 5 5 5 5 5 5 5 5 5 5 5 5 5 5 5 5 5 5 5 5 5 5 5 5 5 5 5 5 5 5 5 5 5 5 5 5 5 5 5 5 5 5 5 5 5 5 5 5 5 5 5 5 5 5 5 5 5 5 5 5 5 5 5 5 5 5 5 5 5 5 5 5 5 5 5 5 5 5 5 5 5 5 5 5 5 5 5 5 5 5 5 5 5 5 5 5 5 5 5 5 5 5 5 5 5 5 5 5 5 5 5 5 5 5 5 5 5 5 5 5 5 5 5 5 5 5 5 5 5 5 5 5 5 5 5 5 5 5 5 5 5 5 5 5 5 5 5 5 5 5 5 5 5 5 5 5 5 5 5 5 5 5 5 5 5 5 5 5 5 5 5 5 5 5 5 5 5 5 5 5 5 5 5 5 5 5 5 5 5 5 5 5 5 5 5 5 5 5 5 5 5 5 5 5 5 5 5 5 5 5 5 5 5 5 5 5 5 5 5 5 5 5 5 5 5 5 5 5 5 5 5 5 5 5 5 5 5 5 5 5 5 5 5 5 5 5 5 5 5 5 5 5 5 5 5 5 5 5 5 5 5 5 5 5 5 5 5 5 5 5 5 5 5 5 5 5 5 5 5 5 5 5 5 5 5 5 5 5 5 5 5 5 5 5 5 5 5 5 5 5 5 5 5 5 5 5 5 5 5 5 5 5 5 5 5 5 5 5 5 5 5 5 5 5 5 5 5 5 5 5 5 5 5 5 5 5 5 5 5 5 5 5 5 5 5 5 5 5 5 5 5 5 5 5 5 5 5 5 5 5 5 5 5 5 5 5 5 5 5 5 5 5 5 3 3 3 3 3 3 3 3 3 3 3 3 3 3 3 3 3 3 3 3 3 3 3 3 3 3 3 3 3 3 3 3 3 3 3 3 3 3 3 3 3 3 3 3 3 3 3 3 3 3 3 3 3 3 3 3 3 3 3 3 3 3 3 3 
CELL_DATA 576
Scalars  Label int 1
LOOKUP_TABLE FreeFempp_table
0
0
0
0
0
0
0
0
0
0
0
0
0
0
0
0
0
0
0
0
0
0
0
0
0
0
0
0
0
0
0
0
0
0
0
0
0
0
0
0
0
0
0
0
0
0
0
0
0
0
0
0
0
0
0
0
0
0
0
0
0
0
0
0
0
0
0
0
0
0
0
0
0
0
0
0
0
0
0
0
0
0
0
0
0
0
0
0
0
0
0
0
0
0
0
0
0
0
0
0
0
0
0
0
0
0
0
0
0
0
0
0
0
0
0
0
0
0
0
0
0
0
0
0
0
0
0
0
0
0
0
0
0
0
0
0
0
0
0
0
0
0
0
0
0
0
0
0
0
0
0
0
0
0
0
0
0
0
0
0
0
0
0
0
0
0
0
0
0
0
0
0
0
0
0
0
0
0
0
0
0
0
0
0
0
0
0
0
0
0
0
0
0
0
0
0
0
0
0
0
0
0
0
0
0
0
0
0
0
0
0
0
0
0
0
0
0
0
0
0
0
0
0
0
0
0
0
0
0
0
0
0
0
0
0
0
0
0
0
0
0
0
0
0
0
0
0
0
0
0
0
0
0
0
0
0
0
0
0
0
0
0
0
0
0
0
0
0
0
0
0
0
0
0
0
0
0
0
0
0
0
0
0
0
0
0
0
0
0
0
0
0
0
0
0
0
0
0
0
0
0
0
0
0
0
0
0
0
0
0
0
0
0
0
0
0
0
0
0
0
0
0
0
0
0
0
0
0
0
0
0
0
0
0
0
0
0
0
0
0
0
0
0
0
0
0
0
0
0
0
0
0
0
0
0
0
0
0
0
0
0
0
0
0
0
0
0
0
0
0
0
0
0
0
0
0
0
0
0
0
0
0
0
0
0
0
0
0
0
0
0
0
0
0
0
0
0
0
0
0
0
0
0
0
0
0
0
0
0
0
0
0
0
0
0
0
0
0
0
0
0
0
0
0
0
0
0
0
0
0
0
0
0
0
0
0
0
0
0
0
0
0
0
0
0
0
0
0
0
0
0
0
0
0
0
0
0
0
0
0
0
0
0
0
0
0
0
0
0
0
0
0
0
0
0
0
0
0
0
0
0
0
0
0
0
0
0
0
0
0
0
0
0
0
0
0
0
0
0
0
0
0
0
0
0
0
0
0
0
0
0
0
1
1
1
1
4
4
4
4
1
1
1
1
1
1
1
1
1
1
1
1
2
2
2
2
4
4
4
4
2
2
2
2
4
4
4
4
2
2
2
2
4
4
4
4
3
3
3
3
3
3
3
3
3
3
3
3
2
2
2
2
3
3
3
3

LOOKUP_TABLE FreeFempp_table 5
1.00000000 0.00000000 0.00000000 1.00000000
1.00000000 1.00000000 0.00000000 1.00000000
1.00000000 0.00000000 1.00000000 1.00000000
0.00000000 1.00000000 0.00000000 1.00000000
0.00000000 1.00000000 1.00000000 1.00000000

FIELD FieldData 1
Pressure 1 576 float
4.31720284e-04 1.06882770e-03 6.87045394e-04 8.27947049e-04 1.67498458e-03 2.22473266e-03 1.35864376e-03 1.81207003e-03 1.02087157e-03 1.18071015e-03 1.27214950e-03 1.24454766e-03 1.33752974e-03 1.05904194e-03 1.33556221e-03 1.02640409e-03 3.10746953e-04 7.43291457e-04 4.07094165e-04 4.48197970e-04 1.03820907e-03 1.26230496e-03 1.10254809e-03 1.15048105e-03 5.54032158e-04 9.14991950e-04 7.22203346e-04 8.94006749e-04 1.02253910e-03 6.79421530e-04 8.51629593e-04 8.01566872e-04 2.69171782e-03 3.05532338e-03 1.87830569e-03 2.55959947e-03 3.30056949e-03 3.41756642e-03 2.09953566e-03 2.91372044e-03 1.41339574e-03 1.38126896e-03 1.31819246e-03 1.52702176e-03 1.84643629e-03 1.82256557e-03 2.79157911e-03 2.03067879e-03 2.22785049e-03 1.72688393e-03 1.56318163e-03 1.65000628e-03 1.54747814e-03 1.37175515e-03 1.43126724e-03 1.38894538e-03 1.40314468e-03 1.43221510e-03 1.37491943e-03 1.36202830e-03 1.40323129e-03 1.30837946e-03 1.38834585e-03 1.50554476e-03 3.40120587e-03 3.25075514e-03 1.96807203e-03 2.80913967e-03 2.96970038e-03 2.56873667e-03 1.45780470e-03 2.23788875e-03 1.02418591e-03 8.28532036e-04 6.90741756e-04 8.25964031e-04 1.22534402e-03 1.48990273e-03 2.58044316e-03 1.75925612e-03 2.92034005e-03 1.67351100e-03 1.79679424e-03 2.08006264e-03 1.09071261e-03 7.95869448e-04 9.15072102e-04 8.23966402e-04 1.44384149e-03 1.08217646e-03 1.25487288e-03 1.19318930e-03 1.01787830e-03 1.29251042e-03 1.19503611e-03 1.29818509e-03 2.24753516e-03 1.69250183e-03 1.45904894e-03 1.85700331e-03 1.08023640e-03 4.37046721e-04 7.38939969e-04 8.46752257e-04 1.27491239e-03 1.09733792e-03 1.43069145e-03 1.30041584e-03 1.08104944e-03 1.36691029e-03 1.36652729e-03 1.10325101e-03 1.35669485e-03 1.08573970e-03 1.19623845e-03 1.29401102e-03 7.61312782e-04 3.16268794e-04 4.22296493e-04 4.56331880e-04 1.00701698e-03 5.90605428e-04 7.96097040e-04 9.24485386e-04 6.96516479e-04 1.12844945e-03 9.06267960e-04 8.44838389e-04 1.09171111e-03 1.18309946e-03 1.33103190e-03 1.05016609e-03 1.27568864e-03 1.36417698e-03 1.44514709e-03 1.32866029e-03 1.48985570e-03 1.51263049e-03 1.56695896e-03 1.47106650e-03 1.40368182e-03 1.30890450e-03 1.20315317e-03 1.38926867e-03 8.95486563e-04 1.18630449e-03 1.06455735e-03 1.27525348e-03 1.40692038e-03 1.52539578e-03 1.49282441e-03 1.57794496e-03 1.22508535e-03 1.43187493e-03 1.37532072e-03 1.60204014e-03 1.58859172e-03 1.44546037e-03 1.46609556e-03 1.31457089e-03 1.42074423e-03 1.42743753e-03 1.44226279e-03 1.42607861e-03 1.37784227e-03 1.27212203e-03 1.22006680e-03 1.29312673e-03 1.32707600e-03 1.15665037e-03 1.08140823e-03 1.17086782e-03 1.23376411e-03 1.36234658e-03 1.38819544e-03 1.35886029e-03 1.40563375e-03 1.43466052e-03 1.44818774e-03 1.46904506e-03 1.33141456e-03 1.09788659e-03 1.28876604e-03 1.28202548e-03 1.48353609e-03 1.42629212e-03 1.50555104e-03 1.52418797e-03 1.43071159e-03 1.50352716e-03 1.44345558e-03 1.43690186e-03 1.11398322e-03 9.09270195e-04 7.98483961e-04 1.00522232e-03 7.44333898e-04 5.93503413e-04 5.70242410e-04 7.72738073e-04 6.03145105e-04 5.82076318e-04 5.85742120e-04 7.37997296e-04 7.31623557e-04 8.44336580e-04 9.00625892e-04 6.54138799e-04 1.14373746e-03 9.58039833e-04 1.05342385e-03 1.03085802e-03 7.70349172e-04 7.33076886e-04 7.15034315e-04 5.87496615e-04 9.84663959e-04 8.16859596e-04 9.18375328e-04 8.35940940e-04 6.27678994e-04 9.38271056e-04 7.14747643e-04 8.92508717e-04 4.67569887e-04 3.48743895e-04 4.03998245e-04 5.65819151e-04 5.57765074e-04 8.65307520e-04 1.02810084e-03 7.88099715e-04 8.68956966e-04 1.18704711e-03 1.34024303e-03 1.16840401e-03 9.84173967e-04 6.83095073e-04 5.12468920e-04 7.11578119e-04 6.50247151e-04 6.11097610e-04 6.90549612e-04 4.96170018e-04 8.50562763e-04 1.34342001e-03 1.01783639e-03 1.02522853e-03 7.07643339e-04 6.86936139e-04 7.13861664e-04 5.57055522e-04 7.12767709e-04 5.33336308e-04 5.52529295e-04 6.33721647e-04 1.74522190e-03 1.70141621e-03 1.81397900e-03 1.53852219e-03 1.65747257e-03 1.61161227e-03 1.65679853e-03 1.56509038e-03 1.84775749e-03 1.72051240e-03 1.81153079e-03 1.61202857e-03 1.59129151e-03 1.62982102e-03 1.56592438e-03 1.74040115e-03 1.51598675e-03 1.64015428e-03 1.65242818e-03 1.87720486e-03 1.69785891e-03 1.64479367e-03 1.79299666e-03 1.98686123e-03 1.79604138e-03 1.89478928e-03 1.95320835e-03 2.10939208e-03 2.08844361e-03 2.00081943e-03 1.94238813e-03 1.75227679e-03 1.53336057e-03 1.40534900e-03 1.37071754e-03 1.40099728e-03 1.22450327e-03 9.95029695e-04 8.98606377e-04 1.01366150e-03 1.07943383e-03 7.93545682e-04 6.81668520e-04 8.13198742e-04 9.18500591e-04 1.16370653e-03 1.23289495e-03 1.15616398e-03 1.51227985e-03 1.36054214e-03 1.50342030e-03 1.53757143e-03 1.08198274e-03 6.98919990e-04 9.89946886e-04 9.96712130e-04 1.48243830e-03 1.24326104e-03 1.46075373e-03 1.57150731e-03 1.29381858e-03 1.54804531e-03 1.33223576e-03 1.30623544e-03 7.24681071e-04 5.36283886e-04 4.79281181e-04 7.33854715e-04 5.64411515e-04 5.79450862e-04 5.65190683e-04 7.19985692e-04 4.98257519e-04 5.44450595e-04 6.80756872e-04 6.70257548e-04 6.99212018e-04 6.56192889e-04 6.89446053e-04 5.34382882e-04 8.43608694e-04 6.44708052e-04 7.61355564e-04 6.05523936e-04 6.15197525e-04 6.43663749e-04 5.65469032e-04 4.56976966e-04 6.72234164e-04 4.73321328e-04 5.76602994e-04 3.88681947e-04 3.74707568e-04 4.88333637e-04 4.29405249e-04 5.50258905e-04 5.67947398e-04 8.68235831e-04 1.01622881e-03 8.47514777e-04 1.17455283e-03 1.48335507e-03 1.61323801e-03 1.50695862e-03 1.44095579e-03 1.72812992e-03 1.82727003e-03 1.79005379e-03 1.65649841e-03 1.33179023e-03 1.17970130e-03 1.31365890e-03 7.12851412e-04 1.00197387e-03 7.04675098e-04 7.06221210e-04 1.47151528e-03 1.90570636e-03 1.59712962e-03 1.55630999e-03 8.24734569e-04 1.28272735e-03 9.68575361e-04 9.96461604e-04 1.28595484e-03 8.54184327e-04 1.15542498e-03 1.14755018e-03 2.04608357e-03 1.84214429e-03 2.05590809e-03 2.04787496e-03 1.61492266e-03 1.36903359e-03 1.67372811e-03 1.66240637e-03 2.09043687e-03 1.94621051e-03 2.15122616e-03 2.12974171e-03 1.90515874e-03 2.10078387e-03 1.89032464e-03 1.86675531e-03 2.15035770e-03 1.94427324e-03 2.02563242e-03 2.06836755e-03 1.67828146e-03 1.39091338e-03 1.44129246e-03 1.46421033e-03 1.86450931e-03 1.53350981e-03 1.66597508e-03 1.68064900e-03 1.57497718e-03 1.91495859e-03 1.78051158e-03 1.74198335e-03 1.59424439e-03 1.25288195e-03 1.20637647e-03 1.17822539e-03 9.10303439e-04 5.66243136e-04 4.54930734e-04 5.76977967e-04 7.60530122e-04 3.60485254e-04 2.85005983e-04 3.22136184e-04 4.60773532e-04 7.87291967e-04 8.90691706e-04 8.26801581e-04 1.44692929e-03 1.11295178e-03 1.43803237e-03 1.59149175e-03 6.88096217e-04 2.05712189e-04 6.06761896e-04 7.13656889e-04 1.42043957e-03 1.00576936e-03 1.39679771e-03 1.49761257e-03 1.12438167e-03 1.55847054e-03 1.16290827e-03 1.05157110e-03 2.86817783e-04 3.16439284e-04 2.87569943e-04 4.08038555e-04 4.93610511e-04 8.28667718e-04 9.82778962e-04 7.89583777e-04 8.08707438e-04 1.15424639e-03 1.34406087e-03 1.09646469e-03 9.36743862e-04 6.06747461e-04 5.03515650e-04 6.46853237e-04 4.73645749e-04 3.33943026e-04 3.58670077e-04 1.84102799e-04 7.69322796e-04 1.28564925e-03 9.52726055e-04 9.79174976e-04 2.20906397e-04 5.84696827e-04 1.94394874e-04 1.49248895e-04 5.75695012e-04 8.43553789e-05 4.32461558e-04 4.16114315e-04 1.13630912e-03 1.41159049e-03 1.54422363e-03 1.40735903e-03 1.66273885e-03 1.91144226e-03 1.98499765e-03 2.00076075e-03 1.89873565e-03 2.05806759e-03 2.14042491e-03 2.11402914e-03 2.07106862e-03 1.80272479e-03 1.70733384e-03 1.77051860e-03 1.10591250e-03 1.52535841e-03 1.24160037e-03 1.28395960e-03 1.89170183e-03 2.13949941e-03 1.99655793e-03 2.05611112e-03 1.38982898e-03 1.80895266e-03 1.57284201e-03 1.65475230e-03 1.89585530e-03 1.45598082e-03 1.70399819e-03 1.65083061e-03 4.31720284e-04 1.06882770e-03 1.67498458e-03 2.22473266e-03 4.07094165e-04 3.10746953e-04 7.22203346e-04 5.54032158e-04 2.69171782e-03 3.05532338e-03 3.30056949e-03 3.41756642e-03 3.40120587e-03 3.25075514e-03 2.96970038e-03 2.56873667e-03 2.24753516e-03 1.69250183e-03 1.08023640e-03 4.37046721e-04 3.16268794e-04 4.22296493e-04 5.90605428e-04 7.96097040e-04 1.06455735e-03 8.95486563e-04 1.37532072e-03 1.22508535e-03 8.65307520e-04 1.02810084e-03 1.18704711e-03 1.34024303e-03 1.65242818e-03 1.51598675e-03 1.95320835e-03 1.79604138e-03 1.48335507e-03 1.61323801e-03 1.72812992e-03 1.82727003e-03 2.05590809e-03 2.04608357e-03 2.15122616e-03 2.09043687e-03 2.02563242e-03 2.15035770e-03 1.66597508e-03 1.86450931e-03 2.05712189e-04 6.06761896e-04 1.00576936e-03 1.39679771e-03 1.28564925e-03 9.52726055e-04 5.84696827e-04 1.94394874e-04 1.91144226e-03 1.98499765e-03 2.05806759e-03 2.14042491e-03 2.13949941e-03 1.99655793e-03 1.80895266e-03 1.57284201e-03 
POINT_DATA 289
FIELD FieldData 2
Velocity 3 289 float