# vtk DataFile Version 2.0
./pics/Error_1_2.vtk, Created by Freefem++ 
ASCII
DATASET UNSTRUCTURED_GRID
POINTS 289 float
0 0 0
0.25 0 0
0.5 0 0
0.75 0 0
1 0 0
0 0.25 0
0.25 0.25 0
0.5 0.25 0
0.75 0.25 0
1 0.25 0
0 0.5 0
0.25 0.5 0
0.5 0.5 0
0.75 0.5 0
1 0.5 0
0 0.75 0
0.25 0.75 0
0.5 0.75 0
0.75 0.75 0
1 0.75 0
0 1 0
0.25 1 0
0.5 1 0
0.75 1 0
1 1 0
0.25 0.125 0
0.125 0 0
0 0.125 0
0.125 0.125 0
0.5 0.125 0
0.375 0 0
0.375 0.125 0
0.75 0.125 0
0.625 0 0
0.625 0.125 0
0.875 0.125 0
0.875 0 0
1 0.125 0
0.25 0.375 0
0.125 0.25 0
0 0.375 0
0.125 0.375 0
0.5 0.375 0
0.375 0.25 0
0.375 0.375 0
0.75 0.375 0
0.625 0.25 0
0.625 0.375 0
1 0.375 0
0.875 0.25 0
0.875 0.375 0
0.25 0.625 0
0.125 0.5 0
0 0.625 0
0.125 0.625 0
0.5 0.625 0
0.375 0.5 0
0.375 0.625 0
0.75 0.625 0
0.625 0.5 0
0.625 0.625 0
1 0.625 0
0.875 0.5 0
0.875 0.625 0
0.125 0.875 0
0 0.875 0
0.125 0.75 0
0.25 0.875 0
0.125 1 0
0.5 0.875 0
0.375 0.75 0
0.375 1 0
0.375 0.875 0
0.75 0.875 0
0.625 0.75 0
0.625 1 0
0.625 0.875 0
1 0.875 0
0.875 0.75 0
0.875 1 0
0.875 0.875 0
0.125 0.0625 0
0.0625 0 0
0.25 0.0625 0
0.1875 0.0625 0
0.1875 0 0
0.1875 0.1875 0
0.1875 0.125 0
0 0.0625 0
0.0625 0.0625 0
0.1875 0.25 0
0 0.1875 0
0.0625 0.1875 0
0.0625 0.125 0
0.125 0.1875 0
0.375 0.0625 0
0.3125 0 0
0.5 0.0625 0
0.4375 0.0625 0
0.4375 0 0
0.4375 0.1875 0
0.4375 0.125 0
0.3125 0.0625 0
0.4375 0.25 0
0.25 0.1875 0
0.3125 0.1875 0
0.3125 0.125 0
0.375 0.1875 0
0.625 0.0625 0
0.5625 0 0
0.75 0.0625 0
0.6875 0.0625 0
0.6875 0 0
0.6875 0.1875 0
0.6875 0.125 0
0.5625 0.0625 0
0.6875 0.25 0
0.5 0.1875 0
0.5625 0.1875 0
0.5625 0.125 0
0.625 0.1875 0
0.8125 0 0
0.9375 0.0625 0
0.875 0.0625 0
0.9375 0 0
0.75 0.1875 0
0.8125 0.125 0
0.8125 0.0625 0
0.875 0.1875 0
0.8125 0.1875 0
1 0.0625 0
1 0.1875 0
0.9375 0.25 0
0.9375 0.125 0
0.9375 0.1875 0
0.125 0.3125 0
0.0625 0.25 0
0.25 0.3125 0
0.1875 0.3125 0
0.1875 0.4375 0
0.1875 0.375 0
0 0.3125 0
0.0625 0.3125 0
0.1875 0.5 0
0 0.4375 0
0.0625 0.4375 0
0.0625 0.375 0
0.125 0.4375 0
0.375 0.3125 0
0.3125 0.25 0
0.5 0.3125 0
0.4375 0.3125 0
0.4375 0.4375 0
0.4375 0.375 0
0.3125 0.3125 0
0.4375 0.5 0
0.25 0.4375 0
0.3125 0.4375 0
0.3125 0.375 0
0.375 0.4375 0
0.625 0.3125 0
0.5625 0.25 0
0.75 0.3125 0
0.6875 0.3125 0
0.6875 0.4375 0
0.6875 0.375 0
0.5625 0.3125 0
0.6875 0.5 0
0.5 0.4375 0
0.5625 0.4375 0
0.5625 0.375 0
0.625 0.4375 0
0.875 0.3125 0
0.8125 0.25 0
1 0.3125 0
0.9375 0.3125 0
1 0.4375 0
0.9375 0.4375 0
0.9375 0.375 0
0.8125 0.3125 0
0.9375 0.5 0
0.75 0.4375 0
0.8125 0.4375 0
0.8125 0.375 0
0.875 0.4375 0
0.125 0.5625 0
0.0625 0.5 0
0.25 0.5625 0
0.1875 0.5625 0
0.1875 0.6875 0
0.1875 0.625 0
0 0.5625 0
0.0625 0.5625 0
0.1875 0.75 0
0 0.6875 0
0.0625 0.6875 0
0.0625 0.625 0
0.125 0.6875 0
0.375 0.5625 0
0.3125 0.5 0
0.5 0.5625 0
0.4375 0.5625 0
0.4375 0.6875 0
0.4375 0.625 0
0.3125 0.5625 0
0.4375 0.75 0
0.25 0.6875 0
0.3125 0.6875 0
0.3125 0.625 0
0.375 0.6875 0
0.625 0.5625 0
0.5625 0.5 0
0.75 0.5625 0
0.6875 0.5625 0
0.6875 0.6875 0
0.6875 0.625 0
0.5625 0.5625 0
0.6875 0.75 0
0.5 0.6875 0
0.5625 0.6875 0
0.5625 0.625 0
0.625 0.6875 0
0.875 0.5625 0
0.8125 0.5 0
1 0.5625 0
0.9375 0.5625 0
1 0.6875 0
0.9375 0.6875 0
0.9375 0.625 0
0.8125 0.5625 0
0.9375 0.75 0
0.75 0.6875 0
0.8125 0.6875 0
0.8125 0.625 0
0.875 0.6875 0
0 0.8125 0
0.0625 0.75 0
0.1875 0.8125 0
0.125 0.8125 0
0 0.9375 0
0.0625 0.8125 0
0.0625 0.875 0
0.125 0.9375 0
0.0625 1 0
0.0625 0.9375 0
0.25 0.8125 0
0.1875 1 0
0.1875 0.875 0
0.1875 0.9375 0
0.375 0.8125 0
0.3125 0.75 0
0.5 0.8125 0
0.4375 0.8125 0
0.4375 0.9375 0
0.4375 0.875 0
0.3125 0.8125 0
0.4375 1 0
0.375 0.9375 0
0.3125 1 0
0.25 0.9375 0
0.3125 0.9375 0
0.3125 0.875 0
0.625 0.8125 0
0.5625 0.75 0
0.75 0.8125 0
0.6875 0.8125 0
0.6875 0.9375 0
0.6875 0.875 0
0.5625 0.8125 0
0.6875 1 0
0.625 0.9375 0
0.5625 1 0
0.5 0.9375 0
0.5625 0.9375 0
0.5625 0.875 0
0.875 0.8125 0
0.8125 0.75 0
1 0.8125 0
0.9375 0.8125 0
1 0.9375 0
0.9375 0.9375 0
0.9375 0.875 0
0.8125 0.8125 0
0.9375 1 0
0.875 0.9375 0
0.8125 1 0
0.75 0.9375 0
0.8125 0.9375 0
0.8125 0.875 0

CELLS 576 2240
3 0 82 89
3 82 26 81
3 89 81 28
3 81 89 82
3 26 85 84
3 85 1 83
3 84 83 25
3 83 84 85
3 28 87 86
3 87 25 104
3 86 104 6
3 104 86 87
3 25 87 84
3 87 28 81
3 84 81 26
3 81 84 87
3 0 89 88
3 89 28 93
3 88 93 27
3 93 88 89
3 28 86 94
3 86 6 90
3 94 90 39
3 90 94 86
3 27 92 91
3 92 39 136
3 91 136 5
3 136 91 92
3 39 92 94
3 92 27 93
3 94 93 28
3 93 94 92
3 1 96 102
3 96 30 95
3 102 95 31
3 95 102 96
3 30 99 98
3 99 2 97
3 98 97 29
3 97 98 99
3 31 101 100
3 101 29 117
3 100 117 7
3 117 100 101
3 29 101 98
3 101 31 95
3 98 95 30
3 95 98 101
3 1 102 83
3 102 31 106
3 83 106 25
3 106 83 102
3 31 100 107
3 100 7 103
3 107 103 43
3 103 107 100
3 25 105 104
3 105 43 149
3 104 149 6
3 149 104 105
3 43 105 107
3 105 25 106
3 107 106 31
3 106 107 105
3 2 109 115
3 109 33 108
3 115 108 34
3 108 115 109
3 33 112 111
3 112 3 110
3 111 110 32
3 110 111 112
3 34 114 113
3 114 32 125
3 113 125 8
3 125 113 114
3 32 114 111
3 114 34 108
3 111 108 33
3 108 111 114
3 2 115 97
3 115 34 119
3 97 119 29
3 119 97 115
3 34 113 120
3 113 8 116
3 120 116 46
3 116 120 113
3 29 118 117
3 118 46 161
3 117 161 7
3 161 117 118
3 46 118 120
3 118 29 119
3 120 119 34
3 119 120 118
3 3 121 110
3 121 36 127
3 110 127 32
3 127 110 121
3 36 124 123
3 124 4 122
3 123 122 35
3 122 123 124
3 32 126 125
3 126 35 129
3 125 129 8
3 129 125 126
3 35 126 123
3 126 32 127
3 123 127 36
3 127 123 126
3 8 129 173
3 129 35 128
3 173 128 49
3 128 173 129
3 35 122 133
3 122 4 130
3 133 130 37
3 130 133 122
3 49 134 132
3 134 37 131
3 132 131 9
3 131 132 134
3 37 134 133
3 134 49 128
3 133 128 35
3 128 133 134
3 5 136 142
3 136 39 135
3 142 135 41
3 135 142 136
3 39 90 138
3 90 6 137
3 138 137 38
3 137 138 90
3 41 140 139
3 140 38 156
3 139 156 11
3 156 139 140
3 38 140 138
3 140 41 135
3 138 135 39
3 135 138 140
3 5 142 141
3 142 41 146
3 141 146 40
3 146 141 142
3 41 139 147
3 139 11 143
3 147 143 52
3 143 147 139
3 40 145 144
3 145 52 186
3 144 186 10
3 186 144 145
3 52 145 147
3 145 40 146
3 147 146 41
3 146 147 145
3 6 149 154
3 149 43 148
3 154 148 44
3 148 154 149
3 43 103 151
3 103 7 150
3 151 150 42
3 150 151 103
3 44 153 152
3 153 42 168
3 152 168 12
3 168 152 153
3 42 153 151
3 153 44 148
3 151 148 43
3 148 151 153
3 6 154 137
3 154 44 158
3 137 158 38
3 158 137 154
3 44 152 159
3 152 12 155
3 159 155 56
3 155 159 152
3 38 157 156
3 157 56 199
3 156 199 11
3 199 156 157
3 56 157 159
3 157 38 158
3 159 158 44
3 158 159 157
3 7 161 166
3 161 46 160
3 166 160 47
3 160 166 161
3 46 116 163
3 116 8 162
3 163 162 45
3 162 163 116
3 47 165 164
3 165 45 181
3 164 181 13
3 181 164 165
3 45 165 163
3 165 47 160
3 163 160 46
3 160 163 165
3 7 166 150
3 166 47 170
3 150 170 42
3 170 150 166
3 47 164 171
3 164 13 167
3 171 167 59
3 167 171 164
3 42 169 168
3 169 59 211
3 168 211 12
3 211 168 169
3 59 169 171
3 169 42 170
3 171 170 47
3 170 171 169
3 8 173 179
3 173 49 172
3 179 172 50
3 172 179 173
3 49 132 175
3 132 9 174
3 175 174 48
3 174 175 132
3 50 178 177
3 178 48 176
3 177 176 14
3 176 177 178
3 48 178 175
3 178 50 172
3 175 172 49
3 172 175 178
3 8 179 162
3 179 50 183
3 162 183 45
3 183 162 179
3 50 177 184
3 177 14 180
3 184 180 62
3 180 184 177
3 45 182 181
3 182 62 223
3 181 223 13
3 223 181 182
3 62 182 184
3 182 45 183
3 184 183 50
3 183 184 182
3 10 186 192
3 186 52 185
3 192 185 54
3 185 192 186
3 52 143 188
3 143 11 187
3 188 187 51
3 187 188 143
3 54 190 189
3 190 51 206
3 189 206 16
3 206 189 190
3 51 190 188
3 190 54 185
3 188 185 52
3 185 188 190
3 10 192 191
3 192 54 196
3 191 196 53
3 196 191 192
3 54 189 197
3 189 16 193
3 197 193 66
3 193 197 189
3 53 195 194
3 195 66 236
3 194 236 15
3 236 194 195
3 66 195 197
3 195 53 196
3 197 196 54
3 196 197 195
3 11 199 204
3 199 56 198
3 204 198 57
3 198 204 199
3 56 155 201
3 155 12 200
3 201 200 55
3 200 201 155
3 57 203 202
3 203 55 218
3 202 218 17
3 218 202 203
3 55 203 201
3 203 57 198
3 201 198 56
3 198 201 203
3 11 204 187
3 204 57 208
3 187 208 51
3 208 187 204
3 57 202 209
3 202 17 205
3 209 205 70
3 205 209 202
3 51 207 206
3 207 70 250
3 206 250 16
3 250 206 207
3 70 207 209
3 207 51 208
3 209 208 57
3 208 209 207
3 12 211 216
3 211 59 210
3 216 210 60
3 210 216 211
3 59 167 213
3 167 13 212
3 213 212 58
3 212 213 167
3 60 215 214
3 215 58 231
3 214 231 18
3 231 214 215
3 58 215 213
3 215 60 210
3 213 210 59
3 210 213 215
3 12 216 200
3 216 60 220
3 200 220 55
3 220 200 216
3 60 214 221
3 214 18 217
3 221 217 74
3 217 221 214
3 55 219 218
3 219 74 263
3 218 263 17
3 263 218 219
3 74 219 221
3 219 55 220
3 221 220 60
3 220 221 219
3 13 223 229
3 223 62 222
3 229 222 63
3 222 229 223
3 62 180 225
3 180 14 224
3 225 224 61
3 224 225 180
3 63 228 227
3 228 61 226
3 227 226 19
3 226 227 228
3 61 228 225
3 228 63 222
3 225 222 62
3 222 225 228
3 13 229 212
3 229 63 233
3 212 233 58
3 233 212 229
3 63 227 234
3 227 19 230
3 234 230 78
3 230 234 227
3 58 232 231
3 232 78 276
3 231 276 18
3 276 231 232
3 78 232 234
3 232 58 233
3 234 233 63
3 233 234 232
3 15 236 235
3 236 66 240
3 235 240 65
3 240 235 236
3 66 193 238
3 193 16 237
3 238 237 64
3 237 238 193
3 65 241 239
3 241 64 244
3 239 244 20
3 244 239 241
3 64 241 238
3 241 65 240
3 238 240 66
3 240 238 241
3 20 244 243
3 244 64 242
3 243 242 68
3 242 243 244
3 64 237 247
3 237 16 245
3 247 245 67
3 245 247 237
3 68 248 246
3 248 67 259
3 246 259 21
3 259 246 248
3 67 248 247
3 248 68 242
3 247 242 64
3 242 247 248
3 16 250 255
3 250 70 249
3 255 249 72
3 249 255 250
3 70 205 252
3 205 17 251
3 252 251 69
3 251 252 205
3 72 254 253
3 254 69 272
3 253 272 22
3 272 253 254
3 69 254 252
3 254 72 249
3 252 249 70
3 249 252 254
3 16 255 245
3 255 72 261
3 245 261 67
3 261 245 255
3 72 253 257
3 253 22 256
3 257 256 71
3 256 257 253
3 67 260 259
3 260 71 258
3 259 258 21
3 258 259 260
3 71 260 257
3 260 67 261
3 257 261 72
3 261 257 260
3 17 263 268
3 263 74 262
3 268 262 76
3 262 268 263
3 74 217 265
3 217 18 264
3 265 264 73
3 264 265 217
3 76 267 266
3 267 73 286
3 266 286 23
3 286 266 267
3 73 267 265
3 267 76 262
3 265 262 74
3 262 265 267
3 17 268 251
3 268 76 274
3 251 274 69
3 274 251 268
3 76 266 270
3 266 23 269
3 270 269 75
3 269 270 266
3 69 273 272
3 273 75 271
3 272 271 22
3 271 272 273
3 75 273 270
3 273 69 274
3 270 274 76
3 274 270 273
3 18 276 282
3 276 78 275
3 282 275 80
3 275 282 276
3 78 230 278
3 230 19 277
3 278 277 77
3 277 278 230
3 80 281 280
3 281 77 279
3 280 279 24
3 279 280 281
3 77 281 278
3 281 80 275
3 278 275 78
3 275 278 281
3 18 282 264
3 282 80 288
3 264 288 73
3 288 264 282
3 80 280 284
3 280 24 283
3 284 283 79
3 283 284 280
3 73 287 286
3 287 79 285
3 286 285 23
3 285 286 287
3 79 287 284
3 287 73 288
3 284 288 80
3 288 284 287
2 0 82
2 82 26
2 26 85
2 85 1
2 27 88
2 88 0
2 5 91
2 91 27
2 1 96
2 96 30
2 30 99
2 99 2
2 2 109
2 109 33
2 33 112
2 112 3
2 3 121
2 121 36
2 36 124
2 124 4
2 4 130
2 130 37
2 37 131
2 131 9
2 40 141
2 141 5
2 10 144
2 144 40
2 9 174
2 174 48
2 48 176
2 176 14
2 53 191
2 191 10
2 15 194
2 194 53
2 14 224
2 224 61
2 61 226
2 226 19
2 65 235
2 235 15
2 20 239
2 239 65
2 68 243
2 243 20
2 21 246
2 246 68
2 22 256
2 256 71
2 71 258
2 258 21
2 23 269
2 269 75
2 75 271
2 271 22
2 19 277
2 277 77
2 77 279
2 279 24
2 24 283
2 283 79
2 79 285
2 285 23

CELL_TYPES 576
5 5 5 5 5 5 5 5 5 5 5 5 5 5 5 5 5 5 5 5 5 5 5 5 5 5 5 5 5 5 5 5 5 5 5 5 5 5 5 5 5 5 5 5 5 5 5 5 5 5 5 5 5 5 5 5 5 5 5 5 5 5 5 5 5 5 5 5 5 5 5 5 5 5 5 5 5 5 5 5 5 5 5 5 5 5 5 5 5 5 5 5 5 5 5 5 5 5 5 5 5 5 5 5 5 5 5 5 5 5 5 5 5 5 5 5 5 5 5 5 5 5 5 5 5 5 5 5 5 5 5 5 5 5 5 5 5 5 5 5 5 5 5 5 5 5 5 5 5 5 5 5 5 5 5 5 5 5 5 5 5 5 5 5 5 5 5 5 5 5 5 5 5 5 5 5 5 5 5 5 5 5 5 5 5 5 5 5 5 5 5 5 5 5 5 5 5 5 5 5 5 5 5 5 5 5 5 5 5 5 5 5 5 5 5 5 5 5 5 5 5 5 5 5 5 5 5 5 5 5 5 5 5 5 5 5 5 5 5 5 5 5 5 5 5 5 5 5 5 5 5 5 5 5 5 5 5 5 5 5 5 5 5 5 5 5 5 5 5 5 5 5 5 5 5 5 5 5 5 5 5 5 5 5 5 5 5 5 5 5 5 5 5 5 5 5 5 5 5 5 5 5 5 5 5 5 5 5 5 5 5 5 5 5 5 5 5 5 5 5 5 5 5 5 5 5 5 5 5 5 5 5 5 5 5 5 5 5 5 5 5 5 5 5 5 5 5 5 5 5 5 5 5 5 5 5 5 5 5 5 5 5 5 5 5 5 5 5 5 5 5 5 5 5 5 5 5 5 5 5 5 5 5 5 5 5 5 5 5 5 5 5 5 5 5 5 5 5 5 5 5 5 5 5 5 5 5 5 5 5 5 5 5 5 5 5 5 5 5 5 5 5 5 5 5 5 5 5 5 5 5 5 5 5 5 5 5 5 5 5 5 5 5 5 5 5 5 5 5 5 5 5 5 5 5 5 5 5 5 5 5 5 5 5 5 5 5 5 5 5 5 5 5 5 5 5 5 5 5 5 5 5 5 5 5 5 5 5 5 5 5 5 5 5 5 5 5 5 5 5 5 5 5 5 5 5 5 5 5 5 5 5 3 3 3 3 3 3 3 3 3 3 3 3 3 3 3 3 3 3 3 3 3 3 3 3 3 3 3 3 3 3 3 3 3 3 3 3 3 3 3 3 3 3 3 3 3 3 3 3 3 3 3 3 3 3 3 3 3 3 3 3 3 3 3 3 
CELL_DATA 576
Scalars  Label int 1
LOOKUP_TABLE FreeFempp_table
0
0
0
0
0
0
0
0
0
0
0
0
0
0
0
0
0
0
0
0
0
0
0
0
0
0
0
0
0
0
0
0
0
0
0
0
0
0
0
0
0
0
0
0
0
0
0
0
0
0
0
0
0
0
0
0
0
0
0
0
0
0
0
0
0
0
0
0
0
0
0
0
0
0
0
0
0
0
0
0
0
0
0
0
0
0
0
0
0
0
0
0
0
0
0
0
0
0
0
0
0
0
0
0
0
0
0
0
0
0
0
0
0
0
0
0
0
0
0
0
0
0
0
0
0
0
0
0
0
0
0
0
0
0
0
0
0
0
0
0
0
0
0
0
0
0
0
0
0
0
0
0
0
0
0
0
0
0
0
0
0
0
0
0
0
0
0
0
0
0
0
0
0
0
0
0
0
0
0
0
0
0
0
0
0
0
0
0
0
0
0
0
0
0
0
0
0
0
0
0
0
0
0
0
0
0
0
0
0
0
0
0
0
0
0
0
0
0
0
0
0
0
0
0
0
0
0
0
0
0
0
0
0
0
0
0
0
0
0
0
0
0
0
0
0
0
0
0
0
0
0
0
0
0
0
0
0
0
0
0
0
0
0
0
0
0
0
0
0
0
0
0
0
0
0
0
0
0
0
0
0
0
0
0
0
0
0
0
0
0
0
0
0
0
0
0
0
0
0
0
0
0
0
0
0
0
0
0
0
0
0
0
0
0
0
0
0
0
0
0
0
0
0
0
0
0
0
0
0
0
0
0
0
0
0
0
0
0
0
0
0
0
0
0
0
0
0
0
0
0
0
0
0
0
0
0
0
0
0
0
0
0
0
0
0
0
0
0
0
0
0
0
0
0
0
0
0
0
0
0
0
0
0
0
0
0
0
0
0
0
0
0
0
0
0
0
0
0
0
0
0
0
0
0
0
0
0
0
0
0
0
0
0
0
0
0
0
0
0
0
0
0
0
0
0
0
0
0
0
0
0
0
0
0
0
0
0
0
0
0
0
0
0
0
0
0
0
0
0
0
0
0
0
0
0
0
0
0
0
0
0
0
0
0
0
0
0
0
0
0
0
0
0
0
0
0
0
0
0
0
0
0
0
0
0
0
0
0
0
0
0
0
0
0
0
0
0
0
0
0
0
0
0
0
0
0
0
0
0
0
0
0
1
1
1
1
4
4
4
4
1
1
1
1
1
1
1
1
1
1
1
1
2
2
2
2
4
4
4
4
2
2
2
2
4
4
4
4
2
2
2
2
4
4
4
4
3
3
3
3
3
3
3
3
3
3
3
3
2
2
2
2
3
3
3
3

LOOKUP_TABLE FreeFempp_table 5
1.00000000 0.00000000 0.00000000 1.00000000
1.00000000 1.00000000 0.00000000 1.00000000
1.00000000 0.00000000 1.00000000 1.00000000
0.00000000 1.00000000 0.00000000 1.00000000
0.00000000 1.00000000 1.00000000 1.00000000

FIELD FieldData 1
Pressure 1 576 float
3.55577940e-04 8.65141104e-04 6.58498146e-04 6.67137268e-04 1.33458443e-03 1.80213829e-03 9.89989028e-04 1.43182243e-03 9.25542787e-04 1.08704157e-03 1.19412260e-03 1.06178527e-03 1.04255811e-03 8.23494629e-04 1.07502087e-03 8.34291917e-04 1.95537257e-04 5.63971116e-04 2.63589813e-04 4.86127916e-04 8.86068505e-04 1.15517166e-03 1.00475480e-03 1.05615857e-03 4.12348832e-04 8.05711141e-04 5.74038597e-04 8.52125522e-04 9.01608902e-04 6.52025687e-04 7.48476479e-04 6.66639651e-04 2.19877041e-03 2.50832504e-03 1.20002439e-03 1.96490833e-03 2.71861651e-03 2.82138074e-03 1.25043269e-03 2.19725585e-03 1.28811109e-03 1.24950253e-03 1.23120868e-03 1.27620937e-03 1.43212371e-03 1.41704397e-03 2.12205085e-03 1.25104981e-03 1.73189119e-03 1.34479778e-03 1.21832557e-03 1.11277774e-03 1.30130944e-03 1.23669335e-03 1.29691162e-03 1.30391691e-03 1.19201862e-03 1.30328711e-03 1.25553738e-03 1.28505984e-03 1.32216222e-03 1.20528752e-03 1.27321074e-03 1.27285300e-03 2.81242048e-03 2.69142096e-03 1.10601995e-03 2.09292280e-03 2.46032118e-03 2.11804081e-03 9.04114044e-04 1.65187742e-03 9.24566993e-04 8.59524764e-04 7.83270865e-04 8.92730604e-04 8.97322374e-04 1.13046728e-03 1.91534869e-03 9.95502458e-04 2.18753912e-03 1.28893123e-03 1.38917996e-03 1.19807117e-03 1.05267810e-03 8.65355716e-04 1.02166773e-03 8.52939615e-04 1.19824219e-03 1.12606620e-03 1.18708389e-03 1.10695243e-03 9.77129792e-04 1.15887169e-03 1.04068255e-03 1.14799617e-03 1.83099136e-03 1.34875439e-03 9.85048013e-04 1.44433475e-03 8.57267762e-04 3.51383671e-04 6.42901286e-04 6.70519308e-04 1.13104680e-03 9.56646400e-04 1.30931730e-03 1.11274666e-03 8.37732805e-04 1.08223502e-03 1.08003977e-03 8.06585478e-04 1.19650445e-03 9.00584622e-04 1.02169940e-03 1.18952419e-03 5.72319666e-04 1.98751382e-04 2.69712007e-04 4.75407491e-04 8.36040184e-04 4.31137043e-04 6.61792874e-04 9.24806227e-04 6.64044346e-04 1.03343616e-03 7.73300417e-04 6.77655218e-04 1.04025041e-03 1.04601728e-03 1.18080527e-03 9.44729429e-04 1.17420813e-03 1.28633261e-03 1.36557512e-03 1.24931021e-03 1.37576344e-03 1.43145316e-03 1.48338755e-03 1.40209042e-03 1.33233320e-03 1.23278762e-03 1.12351135e-03 1.28106028e-03 7.34393019e-04 1.07648375e-03 8.89114686e-04 1.21764746e-03 1.33029558e-03 1.45774661e-03 1.41480903e-03 1.45735370e-03 1.03579566e-03 1.30905665e-03 1.17269263e-03 1.53514510e-03 1.41585863e-03 1.38308026e-03 1.30452297e-03 1.19846128e-03 1.34856591e-03 1.35439401e-03 1.37202581e-03 1.33705966e-03 1.30340073e-03 1.19775708e-03 1.15097337e-03 1.20344455e-03 1.26007898e-03 1.09173451e-03 1.02072768e-03 1.10347499e-03 1.15961186e-03 1.28609035e-03 1.29732862e-03 1.28857396e-03 1.32098561e-03 1.35868869e-03 1.37444644e-03 1.39791833e-03 1.26129598e-03 1.03543361e-03 1.22307264e-03 1.21831952e-03 1.41383195e-03 1.35928881e-03 1.43865752e-03 1.45404553e-03 1.36469654e-03 1.43315329e-03 1.37542689e-03 1.36615394e-03 1.04170770e-03 9.07466805e-04 8.30481004e-04 1.07502542e-03 7.67307822e-04 6.26275141e-04 5.18495101e-04 8.25838652e-04 5.87952731e-04 5.36513398e-04 5.39882807e-04 7.03013153e-04 7.48750579e-04 8.94635217e-04 9.64857289e-04 6.77065400e-04 1.14738336e-03 1.01231993e-03 1.09562930e-03 9.64701176e-04 8.15405860e-04 7.02812220e-04 7.29418709e-04 5.33713610e-04 1.03449880e-03 8.61476467e-04 9.64730978e-04 7.98698224e-04 6.57693425e-04 8.82366847e-04 7.47090031e-04 9.40799597e-04 4.24511236e-04 2.53501028e-04 3.98195727e-04 6.07465510e-04 5.44654205e-04 8.84315989e-04 9.95188835e-04 8.24377639e-04 8.48014315e-04 1.13669923e-03 1.27438095e-03 1.15230377e-03 9.76495212e-04 6.61851082e-04 5.59367414e-04 6.92698348e-04 6.94405462e-04 6.10546267e-04 6.69884728e-04 4.54948633e-04 8.15472798e-04 1.32271589e-03 9.72014095e-04 9.96530871e-04 6.85295206e-04 6.73220435e-04 6.97743206e-04 5.20491798e-04 7.16178911e-04 5.00185124e-04 5.60469925e-04 6.34051685e-04 1.67285767e-03 1.51439023e-03 1.60387950e-03 1.40714040e-03 1.52565853e-03 1.52129855e-03 1.54785102e-03 1.49853330e-03 1.66285795e-03 1.58245512e-03 1.72508985e-03 1.51938992e-03 1.52247702e-03 1.54027576e-03 1.48529932e-03 1.58455560e-03 1.29884679e-03 1.49247772e-03 1.41626294e-03 1.79742312e-03 1.57541793e-03 1.47032819e-03 1.60591444e-03 1.90048851e-03 1.54419255e-03 1.66690431e-03 1.77837966e-03 2.13575596e-03 1.98732014e-03 1.92359788e-03 1.71352830e-03 1.56803208e-03 1.46059704e-03 1.33999600e-03 1.30187022e-03 1.33810856e-03 1.16369303e-03 9.38612793e-04 8.46050913e-04 9.68861510e-04 1.01792184e-03 7.43706478e-04 6.32236304e-04 8.12449609e-04 8.94326717e-04 1.10780739e-03 1.17179786e-03 1.09667249e-03 1.44852616e-03 1.30225683e-03 1.44200737e-03 1.45407638e-03 1.03127863e-03 7.24238518e-04 9.42676968e-04 9.28258756e-04 1.41087337e-03 1.17839628e-03 1.33195450e-03 1.45602238e-03 1.19584973e-03 1.44242228e-03 1.25230872e-03 1.24978658e-03 7.08456966e-04 5.62919129e-04 4.63719363e-04 7.75157008e-04 5.14202577e-04 5.35814092e-04 5.25627052e-04 6.95408962e-04 4.57481452e-04 5.46886004e-04 6.87766704e-04 6.58312812e-04 6.80586789e-04 6.28273061e-04 6.55915530e-04 4.88712860e-04 8.86980386e-04 6.82743150e-04 8.02053139e-04 6.12633536e-04 5.93334611e-04 6.48054236e-04 5.51148667e-04 4.20709781e-04 7.10936438e-04 4.83985845e-04 6.14800490e-04 4.08815016e-04 3.34037642e-04 5.12347557e-04 3.83913110e-04 5.85290254e-04 5.68265386e-04 8.65021080e-04 1.00583374e-03 8.25565134e-04 1.13574590e-03 1.40074664e-03 1.51367276e-03 1.48117950e-03 1.38039421e-03 1.61191425e-03 1.69445993e-03 1.75412302e-03 1.62547408e-03 1.25866348e-03 1.12067338e-03 1.26412604e-03 7.03740458e-04 9.70234512e-04 7.02596328e-04 7.15576636e-04 1.38444034e-03 1.86583586e-03 1.49667810e-03 1.48345297e-03 8.17429973e-04 1.23047188e-03 9.53218376e-04 9.90474946e-04 1.25838537e-03 8.56706873e-04 1.13733765e-03 1.10565405e-03 1.94225821e-03 1.64106698e-03 1.85279339e-03 2.10188772e-03 1.42171106e-03 1.26798009e-03 1.51775498e-03 1.60266471e-03 1.87254488e-03 1.76723744e-03 1.99087500e-03 2.06408487e-03 1.72960397e-03 2.05525011e-03 1.85574719e-03 1.67800230e-03 1.98951596e-03 1.75248028e-03 1.81843387e-03 2.01427378e-03 1.50221004e-03 1.28595054e-03 1.26571814e-03 1.43050391e-03 1.69208553e-03 1.37313746e-03 1.59404206e-03 1.73329422e-03 1.56689587e-03 1.88831217e-03 1.64118770e-03 1.56081666e-03 1.51531806e-03 1.13299931e-03 1.05670281e-03 1.10063702e-03 8.28212360e-04 5.12448722e-04 3.87143897e-04 6.31079427e-04 6.26797380e-04 2.72679783e-04 2.42157606e-04 4.25682578e-04 5.33844344e-04 7.33653083e-04 8.43539310e-04 7.20259035e-04 1.28647336e-03 1.01914548e-03 1.27987843e-03 1.51595497e-03 6.07144379e-04 2.48518074e-04 4.67970036e-04 6.54838863e-04 1.23403280e-03 8.23464186e-04 1.25179114e-03 1.51206565e-03 1.05879328e-03 1.47030456e-03 9.87648033e-04 9.19807237e-04 3.03267181e-04 2.79469794e-04 3.04598972e-04 3.90768982e-04 5.02320065e-04 8.23828508e-04 9.56608739e-04 7.84467848e-04 7.88111705e-04 1.10151677e-03 1.33160525e-03 1.04469119e-03 9.15207493e-04 6.00477448e-04 5.01396018e-04 6.41915074e-04 5.14874991e-04 3.25181638e-04 4.11344488e-04 1.96600988e-04 7.41606811e-04 1.20864878e-03 9.15467157e-04 9.79310717e-04 2.96181388e-04 5.88881085e-04 2.41300921e-04 2.04700991e-04 5.89558156e-04 1.52621797e-04 4.45954793e-04 4.12280438e-04 1.11623283e-03 1.36845710e-03 1.47095462e-03 1.34345063e-03 1.57279172e-03 1.76061911e-03 1.81119971e-03 1.95916253e-03 1.74757745e-03 1.85719389e-03 1.98346749e-03 2.05832184e-03 2.03032140e-03 1.67451054e-03 1.59404171e-03 1.65155274e-03 1.08032976e-03 1.44363462e-03 1.19819341e-03 1.23660732e-03 1.73390587e-03 1.98226981e-03 1.80163200e-03 2.00687582e-03 1.31047517e-03 1.65358430e-03 1.45735533e-03 1.63254538e-03 1.86758791e-03 1.37394306e-03 1.59366056e-03 1.53303973e-03 3.55577940e-04 8.65141104e-04 1.33458443e-03 1.80213829e-03 2.63589813e-04 1.95537257e-04 5.74038597e-04 4.12348832e-04 2.19877041e-03 2.50832504e-03 2.71861651e-03 2.82138074e-03 2.81242048e-03 2.69142096e-03 2.46032118e-03 2.11804081e-03 1.83099136e-03 1.34875439e-03 8.57267762e-04 3.51383671e-04 1.98751382e-04 2.69712007e-04 4.31137043e-04 6.61792874e-04 8.89114686e-04 7.34393019e-04 1.17269263e-03 1.03579566e-03 8.84315989e-04 9.95188835e-04 1.13669923e-03 1.27438095e-03 1.41626294e-03 1.29884679e-03 1.77837966e-03 1.54419255e-03 1.40074664e-03 1.51367276e-03 1.61191425e-03 1.69445993e-03 1.85279339e-03 1.94225821e-03 1.99087500e-03 1.87254488e-03 1.81843387e-03 1.98951596e-03 1.59404206e-03 1.69208553e-03 2.48518074e-04 4.67970036e-04 8.23464186e-04 1.25179114e-03 1.20864878e-03 9.15467157e-04 5.88881085e-04 2.41300921e-04 1.76061911e-03 1.81119971e-03 1.85719389e-03 1.98346749e-03 1.98226981e-03 1.80163200e-03 1.65358430e-03 1.45735533e-03 
POINT_DATA 289
FIELD FieldData 2
Velocity 3 289 float