# vtk DataFile Version 2.0
./pics/Error_1_3.vtk, Created by Freefem++ 
ASCII
DATASET UNSTRUCTURED_GRID
POINTS 289 float
0 0 0
0.25 0 0
0.5 0 0
0.75 0 0
1 0 0
0 0.25 0
0.25 0.25 0
0.5 0.25 0
0.75 0.25 0
1 0.25 0
0 0.5 0
0.25 0.5 0
0.5 0.5 0
0.75 0.5 0
1 0.5 0
0 0.75 0
0.25 0.75 0
0.5 0.75 0
0.75 0.75 0
1 0.75 0
0 1 0
0.25 1 0
0.5 1 0
0.75 1 0
1 1 0
0.25 0.125 0
0.125 0 0
0 0.125 0
0.125 0.125 0
0.5 0.125 0
0.375 0 0
0.375 0.125 0
0.75 0.125 0
0.625 0 0
0.625 0.125 0
0.875 0.125 0
0.875 0 0
1 0.125 0
0.25 0.375 0
0.125 0.25 0
0 0.375 0
0.125 0.375 0
0.5 0.375 0
0.375 0.25 0
0.375 0.375 0
0.75 0.375 0
0.625 0.25 0
0.625 0.375 0
1 0.375 0
0.875 0.25 0
0.875 0.375 0
0.25 0.625 0
0.125 0.5 0
0 0.625 0
0.125 0.625 0
0.5 0.625 0
0.375 0.5 0
0.375 0.625 0
0.75 0.625 0
0.625 0.5 0
0.625 0.625 0
1 0.625 0
0.875 0.5 0
0.875 0.625 0
0.125 0.875 0
0 0.875 0
0.125 0.75 0
0.25 0.875 0
0.125 1 0
0.5 0.875 0
0.375 0.75 0
0.375 1 0
0.375 0.875 0
0.75 0.875 0
0.625 0.75 0
0.625 1 0
0.625 0.875 0
1 0.875 0
0.875 0.75 0
0.875 1 0
0.875 0.875 0
0.125 0.0625 0
0.0625 0 0
0.25 0.0625 0
0.1875 0.0625 0
0.1875 0 0
0.1875 0.1875 0
0.1875 0.125 0
0 0.0625 0
0.0625 0.0625 0
0.1875 0.25 0
0 0.1875 0
0.0625 0.1875 0
0.0625 0.125 0
0.125 0.1875 0
0.375 0.0625 0
0.3125 0 0
0.5 0.0625 0
0.4375 0.0625 0
0.4375 0 0
0.4375 0.1875 0
0.4375 0.125 0
0.3125 0.0625 0
0.4375 0.25 0
0.25 0.1875 0
0.3125 0.1875 0
0.3125 0.125 0
0.375 0.1875 0
0.625 0.0625 0
0.5625 0 0
0.75 0.0625 0
0.6875 0.0625 0
0.6875 0 0
0.6875 0.1875 0
0.6875 0.125 0
0.5625 0.0625 0
0.6875 0.25 0
0.5 0.1875 0
0.5625 0.1875 0
0.5625 0.125 0
0.625 0.1875 0
0.8125 0 0
0.9375 0.0625 0
0.875 0.0625 0
0.9375 0 0
0.75 0.1875 0
0.8125 0.125 0
0.8125 0.0625 0
0.875 0.1875 0
0.8125 0.1875 0
1 0.0625 0
1 0.1875 0
0.9375 0.25 0
0.9375 0.125 0
0.9375 0.1875 0
0.125 0.3125 0
0.0625 0.25 0
0.25 0.3125 0
0.1875 0.3125 0
0.1875 0.4375 0
0.1875 0.375 0
0 0.3125 0
0.0625 0.3125 0
0.1875 0.5 0
0 0.4375 0
0.0625 0.4375 0
0.0625 0.375 0
0.125 0.4375 0
0.375 0.3125 0
0.3125 0.25 0
0.5 0.3125 0
0.4375 0.3125 0
0.4375 0.4375 0
0.4375 0.375 0
0.3125 0.3125 0
0.4375 0.5 0
0.25 0.4375 0
0.3125 0.4375 0
0.3125 0.375 0
0.375 0.4375 0
0.625 0.3125 0
0.5625 0.25 0
0.75 0.3125 0
0.6875 0.3125 0
0.6875 0.4375 0
0.6875 0.375 0
0.5625 0.3125 0
0.6875 0.5 0
0.5 0.4375 0
0.5625 0.4375 0
0.5625 0.375 0
0.625 0.4375 0
0.875 0.3125 0
0.8125 0.25 0
1 0.3125 0
0.9375 0.3125 0
1 0.4375 0
0.9375 0.4375 0
0.9375 0.375 0
0.8125 0.3125 0
0.9375 0.5 0
0.75 0.4375 0
0.8125 0.4375 0
0.8125 0.375 0
0.875 0.4375 0
0.125 0.5625 0
0.0625 0.5 0
0.25 0.5625 0
0.1875 0.5625 0
0.1875 0.6875 0
0.1875 0.625 0
0 0.5625 0
0.0625 0.5625 0
0.1875 0.75 0
0 0.6875 0
0.0625 0.6875 0
0.0625 0.625 0
0.125 0.6875 0
0.375 0.5625 0
0.3125 0.5 0
0.5 0.5625 0
0.4375 0.5625 0
0.4375 0.6875 0
0.4375 0.625 0
0.3125 0.5625 0
0.4375 0.75 0
0.25 0.6875 0
0.3125 0.6875 0
0.3125 0.625 0
0.375 0.6875 0
0.625 0.5625 0
0.5625 0.5 0
0.75 0.5625 0
0.6875 0.5625 0
0.6875 0.6875 0
0.6875 0.625 0
0.5625 0.5625 0
0.6875 0.75 0
0.5 0.6875 0
0.5625 0.6875 0
0.5625 0.625 0
0.625 0.6875 0
0.875 0.5625 0
0.8125 0.5 0
1 0.5625 0
0.9375 0.5625 0
1 0.6875 0
0.9375 0.6875 0
0.9375 0.625 0
0.8125 0.5625 0
0.9375 0.75 0
0.75 0.6875 0
0.8125 0.6875 0
0.8125 0.625 0
0.875 0.6875 0
0 0.8125 0
0.0625 0.75 0
0.1875 0.8125 0
0.125 0.8125 0
0 0.9375 0
0.0625 0.8125 0
0.0625 0.875 0
0.125 0.9375 0
0.0625 1 0
0.0625 0.9375 0
0.25 0.8125 0
0.1875 1 0
0.1875 0.875 0
0.1875 0.9375 0
0.375 0.8125 0
0.3125 0.75 0
0.5 0.8125 0
0.4375 0.8125 0
0.4375 0.9375 0
0.4375 0.875 0
0.3125 0.8125 0
0.4375 1 0
0.375 0.9375 0
0.3125 1 0
0.25 0.9375 0
0.3125 0.9375 0
0.3125 0.875 0
0.625 0.8125 0
0.5625 0.75 0
0.75 0.8125 0
0.6875 0.8125 0
0.6875 0.9375 0
0.6875 0.875 0
0.5625 0.8125 0
0.6875 1 0
0.625 0.9375 0
0.5625 1 0
0.5 0.9375 0
0.5625 0.9375 0
0.5625 0.875 0
0.875 0.8125 0
0.8125 0.75 0
1 0.8125 0
0.9375 0.8125 0
1 0.9375 0
0.9375 0.9375 0
0.9375 0.875 0
0.8125 0.8125 0
0.9375 1 0
0.875 0.9375 0
0.8125 1 0
0.75 0.9375 0
0.8125 0.9375 0
0.8125 0.875 0

CELLS 576 2240
3 0 82 89
3 82 26 81
3 89 81 28
3 81 89 82
3 26 85 84
3 85 1 83
3 84 83 25
3 83 84 85
3 28 87 86
3 87 25 104
3 86 104 6
3 104 86 87
3 25 87 84
3 87 28 81
3 84 81 26
3 81 84 87
3 0 89 88
3 89 28 93
3 88 93 27
3 93 88 89
3 28 86 94
3 86 6 90
3 94 90 39
3 90 94 86
3 27 92 91
3 92 39 136
3 91 136 5
3 136 91 92
3 39 92 94
3 92 27 93
3 94 93 28
3 93 94 92
3 1 96 102
3 96 30 95
3 102 95 31
3 95 102 96
3 30 99 98
3 99 2 97
3 98 97 29
3 97 98 99
3 31 101 100
3 101 29 117
3 100 117 7
3 117 100 101
3 29 101 98
3 101 31 95
3 98 95 30
3 95 98 101
3 1 102 83
3 102 31 106
3 83 106 25
3 106 83 102
3 31 100 107
3 100 7 103
3 107 103 43
3 103 107 100
3 25 105 104
3 105 43 149
3 104 149 6
3 149 104 105
3 43 105 107
3 105 25 106
3 107 106 31
3 106 107 105
3 2 109 115
3 109 33 108
3 115 108 34
3 108 115 109
3 33 112 111
3 112 3 110
3 111 110 32
3 110 111 112
3 34 114 113
3 114 32 125
3 113 125 8
3 125 113 114
3 32 114 111
3 114 34 108
3 111 108 33
3 108 111 114
3 2 115 97
3 115 34 119
3 97 119 29
3 119 97 115
3 34 113 120
3 113 8 116
3 120 116 46
3 116 120 113
3 29 118 117
3 118 46 161
3 117 161 7
3 161 117 118
3 46 118 120
3 118 29 119
3 120 119 34
3 119 120 118
3 3 121 110
3 121 36 127
3 110 127 32
3 127 110 121
3 36 124 123
3 124 4 122
3 123 122 35
3 122 123 124
3 32 126 125
3 126 35 129
3 125 129 8
3 129 125 126
3 35 126 123
3 126 32 127
3 123 127 36
3 127 123 126
3 8 129 173
3 129 35 128
3 173 128 49
3 128 173 129
3 35 122 133
3 122 4 130
3 133 130 37
3 130 133 122
3 49 134 132
3 134 37 131
3 132 131 9
3 131 132 134
3 37 134 133
3 134 49 128
3 133 128 35
3 128 133 134
3 5 136 142
3 136 39 135
3 142 135 41
3 135 142 136
3 39 90 138
3 90 6 137
3 138 137 38
3 137 138 90
3 41 140 139
3 140 38 156
3 139 156 11
3 156 139 140
3 38 140 138
3 140 41 135
3 138 135 39
3 135 138 140
3 5 142 141
3 142 41 146
3 141 146 40
3 146 141 142
3 41 139 147
3 139 11 143
3 147 143 52
3 143 147 139
3 40 145 144
3 145 52 186
3 144 186 10
3 186 144 145
3 52 145 147
3 145 40 146
3 147 146 41
3 146 147 145
3 6 149 154
3 149 43 148
3 154 148 44
3 148 154 149
3 43 103 151
3 103 7 150
3 151 150 42
3 150 151 103
3 44 153 152
3 153 42 168
3 152 168 12
3 168 152 153
3 42 153 151
3 153 44 148
3 151 148 43
3 148 151 153
3 6 154 137
3 154 44 158
3 137 158 38
3 158 137 154
3 44 152 159
3 152 12 155
3 159 155 56
3 155 159 152
3 38 157 156
3 157 56 199
3 156 199 11
3 199 156 157
3 56 157 159
3 157 38 158
3 159 158 44
3 158 159 157
3 7 161 166
3 161 46 160
3 166 160 47
3 160 166 161
3 46 116 163
3 116 8 162
3 163 162 45
3 162 163 116
3 47 165 164
3 165 45 181
3 164 181 13
3 181 164 165
3 45 165 163
3 165 47 160
3 163 160 46
3 160 163 165
3 7 166 150
3 166 47 170
3 150 170 42
3 170 150 166
3 47 164 171
3 164 13 167
3 171 167 59
3 167 171 164
3 42 169 168
3 169 59 211
3 168 211 12
3 211 168 169
3 59 169 171
3 169 42 170
3 171 170 47
3 170 171 169
3 8 173 179
3 173 49 172
3 179 172 50
3 172 179 173
3 49 132 175
3 132 9 174
3 175 174 48
3 174 175 132
3 50 178 177
3 178 48 176
3 177 176 14
3 176 177 178
3 48 178 175
3 178 50 172
3 175 172 49
3 172 175 178
3 8 179 162
3 179 50 183
3 162 183 45
3 183 162 179
3 50 177 184
3 177 14 180
3 184 180 62
3 180 184 177
3 45 182 181
3 182 62 223
3 181 223 13
3 223 181 182
3 62 182 184
3 182 45 183
3 184 183 50
3 183 184 182
3 10 186 192
3 186 52 185
3 192 185 54
3 185 192 186
3 52 143 188
3 143 11 187
3 188 187 51
3 187 188 143
3 54 190 189
3 190 51 206
3 189 206 16
3 206 189 190
3 51 190 188
3 190 54 185
3 188 185 52
3 185 188 190
3 10 192 191
3 192 54 196
3 191 196 53
3 196 191 192
3 54 189 197
3 189 16 193
3 197 193 66
3 193 197 189
3 53 195 194
3 195 66 236
3 194 236 15
3 236 194 195
3 66 195 197
3 195 53 196
3 197 196 54
3 196 197 195
3 11 199 204
3 199 56 198
3 204 198 57
3 198 204 199
3 56 155 201
3 155 12 200
3 201 200 55
3 200 201 155
3 57 203 202
3 203 55 218
3 202 218 17
3 218 202 203
3 55 203 201
3 203 57 198
3 201 198 56
3 198 201 203
3 11 204 187
3 204 57 208
3 187 208 51
3 208 187 204
3 57 202 209
3 202 17 205
3 209 205 70
3 205 209 202
3 51 207 206
3 207 70 250
3 206 250 16
3 250 206 207
3 70 207 209
3 207 51 208
3 209 208 57
3 208 209 207
3 12 211 216
3 211 59 210
3 216 210 60
3 210 216 211
3 59 167 213
3 167 13 212
3 213 212 58
3 212 213 167
3 60 215 214
3 215 58 231
3 214 231 18
3 231 214 215
3 58 215 213
3 215 60 210
3 213 210 59
3 210 213 215
3 12 216 200
3 216 60 220
3 200 220 55
3 220 200 216
3 60 214 221
3 214 18 217
3 221 217 74
3 217 221 214
3 55 219 218
3 219 74 263
3 218 263 17
3 263 218 219
3 74 219 221
3 219 55 220
3 221 220 60
3 220 221 219
3 13 223 229
3 223 62 222
3 229 222 63
3 222 229 223
3 62 180 225
3 180 14 224
3 225 224 61
3 224 225 180
3 63 228 227
3 228 61 226
3 227 226 19
3 226 227 228
3 61 228 225
3 228 63 222
3 225 222 62
3 222 225 228
3 13 229 212
3 229 63 233
3 212 233 58
3 233 212 229
3 63 227 234
3 227 19 230
3 234 230 78
3 230 234 227
3 58 232 231
3 232 78 276
3 231 276 18
3 276 231 232
3 78 232 234
3 232 58 233
3 234 233 63
3 233 234 232
3 15 236 235
3 236 66 240
3 235 240 65
3 240 235 236
3 66 193 238
3 193 16 237
3 238 237 64
3 237 238 193
3 65 241 239
3 241 64 244
3 239 244 20
3 244 239 241
3 64 241 238
3 241 65 240
3 238 240 66
3 240 238 241
3 20 244 243
3 244 64 242
3 243 242 68
3 242 243 244
3 64 237 247
3 237 16 245
3 247 245 67
3 245 247 237
3 68 248 246
3 248 67 259
3 246 259 21
3 259 246 248
3 67 248 247
3 248 68 242
3 247 242 64
3 242 247 248
3 16 250 255
3 250 70 249
3 255 249 72
3 249 255 250
3 70 205 252
3 205 17 251
3 252 251 69
3 251 252 205
3 72 254 253
3 254 69 272
3 253 272 22
3 272 253 254
3 69 254 252
3 254 72 249
3 252 249 70
3 249 252 254
3 16 255 245
3 255 72 261
3 245 261 67
3 261 245 255
3 72 253 257
3 253 22 256
3 257 256 71
3 256 257 253
3 67 260 259
3 260 71 258
3 259 258 21
3 258 259 260
3 71 260 257
3 260 67 261
3 257 261 72
3 261 257 260
3 17 263 268
3 263 74 262
3 268 262 76
3 262 268 263
3 74 217 265
3 217 18 264
3 265 264 73
3 264 265 217
3 76 267 266
3 267 73 286
3 266 286 23
3 286 266 267
3 73 267 265
3 267 76 262
3 265 262 74
3 262 265 267
3 17 268 251
3 268 76 274
3 251 274 69
3 274 251 268
3 76 266 270
3 266 23 269
3 270 269 75
3 269 270 266
3 69 273 272
3 273 75 271
3 272 271 22
3 271 272 273
3 75 273 270
3 273 69 274
3 270 274 76
3 274 270 273
3 18 276 282
3 276 78 275
3 282 275 80
3 275 282 276
3 78 230 278
3 230 19 277
3 278 277 77
3 277 278 230
3 80 281 280
3 281 77 279
3 280 279 24
3 279 280 281
3 77 281 278
3 281 80 275
3 278 275 78
3 275 278 281
3 18 282 264
3 282 80 288
3 264 288 73
3 288 264 282
3 80 280 284
3 280 24 283
3 284 283 79
3 283 284 280
3 73 287 286
3 287 79 285
3 286 285 23
3 285 286 287
3 79 287 284
3 287 73 288
3 284 288 80
3 288 284 287
2 0 82
2 82 26
2 26 85
2 85 1
2 27 88
2 88 0
2 5 91
2 91 27
2 1 96
2 96 30
2 30 99
2 99 2
2 2 109
2 109 33
2 33 112
2 112 3
2 3 121
2 121 36
2 36 124
2 124 4
2 4 130
2 130 37
2 37 131
2 131 9
2 40 141
2 141 5
2 10 144
2 144 40
2 9 174
2 174 48
2 48 176
2 176 14
2 53 191
2 191 10
2 15 194
2 194 53
2 14 224
2 224 61
2 61 226
2 226 19
2 65 235
2 235 15
2 20 239
2 239 65
2 68 243
2 243 20
2 21 246
2 246 68
2 22 256
2 256 71
2 71 258
2 258 21
2 23 269
2 269 75
2 75 271
2 271 22
2 19 277
2 277 77
2 77 279
2 279 24
2 24 283
2 283 79
2 79 285
2 285 23

CELL_TYPES 576
5 5 5 5 5 5 5 5 5 5 5 5 5 5 5 5 5 5 5 5 5 5 5 5 5 5 5 5 5 5 5 5 5 5 5 5 5 5 5 5 5 5 5 5 5 5 5 5 5 5 5 5 5 5 5 5 5 5 5 5 5 5 5 5 5 5 5 5 5 5 5 5 5 5 5 5 5 5 5 5 5 5 5 5 5 5 5 5 5 5 5 5 5 5 5 5 5 5 5 5 5 5 5 5 5 5 5 5 5 5 5 5 5 5 5 5 5 5 5 5 5 5 5 5 5 5 5 5 5 5 5 5 5 5 5 5 5 5 5 5 5 5 5 5 5 5 5 5 5 5 5 5 5 5 5 5 5 5 5 5 5 5 5 5 5 5 5 5 5 5 5 5 5 5 5 5 5 5 5 5 5 5 5 5 5 5 5 5 5 5 5 5 5 5 5 5 5 5 5 5 5 5 5 5 5 5 5 5 5 5 5 5 5 5 5 5 5 5 5 5 5 5 5 5 5 5 5 5 5 5 5 5 5 5 5 5 5 5 5 5 5 5 5 5 5 5 5 5 5 5 5 5 5 5 5 5 5 5 5 5 5 5 5 5 5 5 5 5 5 5 5 5 5 5 5 5 5 5 5 5 5 5 5 5 5 5 5 5 5 5 5 5 5 5 5 5 5 5 5 5 5 5 5 5 5 5 5 5 5 5 5 5 5 5 5 5 5 5 5 5 5 5 5 5 5 5 5 5 5 5 5 5 5 5 5 5 5 5 5 5 5 5 5 5 5 5 5 5 5 5 5 5 5 5 5 5 5 5 5 5 5 5 5 5 5 5 5 5 5 5 5 5 5 5 5 5 5 5 5 5 5 5 5 5 5 5 5 5 5 5 5 5 5 5 5 5 5 5 5 5 5 5 5 5 5 5 5 5 5 5 5 5 5 5 5 5 5 5 5 5 5 5 5 5 5 5 5 5 5 5 5 5 5 5 5 5 5 5 5 5 5 5 5 5 5 5 5 5 5 5 5 5 5 5 5 5 5 5 5 5 5 5 5 5 5 5 5 5 5 5 5 5 5 5 5 5 5 5 5 5 5 5 5 5 5 5 5 5 5 5 5 5 5 5 5 5 5 5 5 5 5 5 5 5 5 5 5 5 5 5 5 5 3 3 3 3 3 3 3 3 3 3 3 3 3 3 3 3 3 3 3 3 3 3 3 3 3 3 3 3 3 3 3 3 3 3 3 3 3 3 3 3 3 3 3 3 3 3 3 3 3 3 3 3 3 3 3 3 3 3 3 3 3 3 3 3 
CELL_DATA 576
Scalars  Label int 1
LOOKUP_TABLE FreeFempp_table
0
0
0
0
0
0
0
0
0
0
0
0
0
0
0
0
0
0
0
0
0
0
0
0
0
0
0
0
0
0
0
0
0
0
0
0
0
0
0
0
0
0
0
0
0
0
0
0
0
0
0
0
0
0
0
0
0
0
0
0
0
0
0
0
0
0
0
0
0
0
0
0
0
0
0
0
0
0
0
0
0
0
0
0
0
0
0
0
0
0
0
0
0
0
0
0
0
0
0
0
0
0
0
0
0
0
0
0
0
0
0
0
0
0
0
0
0
0
0
0
0
0
0
0
0
0
0
0
0
0
0
0
0
0
0
0
0
0
0
0
0
0
0
0
0
0
0
0
0
0
0
0
0
0
0
0
0
0
0
0
0
0
0
0
0
0
0
0
0
0
0
0
0
0
0
0
0
0
0
0
0
0
0
0
0
0
0
0
0
0
0
0
0
0
0
0
0
0
0
0
0
0
0
0
0
0
0
0
0
0
0
0
0
0
0
0
0
0
0
0
0
0
0
0
0
0
0
0
0
0
0
0
0
0
0
0
0
0
0
0
0
0
0
0
0
0
0
0
0
0
0
0
0
0
0
0
0
0
0
0
0
0
0
0
0
0
0
0
0
0
0
0
0
0
0
0
0
0
0
0
0
0
0
0
0
0
0
0
0
0
0
0
0
0
0
0
0
0
0
0
0
0
0
0
0
0
0
0
0
0
0
0
0
0
0
0
0
0
0
0
0
0
0
0
0
0
0
0
0
0
0
0
0
0
0
0
0
0
0
0
0
0
0
0
0
0
0
0
0
0
0
0
0
0
0
0
0
0
0
0
0
0
0
0
0
0
0
0
0
0
0
0
0
0
0
0
0
0
0
0
0
0
0
0
0
0
0
0
0
0
0
0
0
0
0
0
0
0
0
0
0
0
0
0
0
0
0
0
0
0
0
0
0
0
0
0
0
0
0
0
0
0
0
0
0
0
0
0
0
0
0
0
0
0
0
0
0
0
0
0
0
0
0
0
0
0
0
0
0
0
0
0
0
0
0
0
0
0
0
0
0
0
0
0
0
0
0
0
0
0
0
0
0
0
0
0
0
0
0
0
0
0
0
0
0
0
0
0
0
0
0
0
0
0
0
0
0
0
0
0
0
0
0
0
0
0
0
0
0
0
0
0
1
1
1
1
4
4
4
4
1
1
1
1
1
1
1
1
1
1
1
1
2
2
2
2
4
4
4
4
2
2
2
2
4
4
4
4
2
2
2
2
4
4
4
4
3
3
3
3
3
3
3
3
3
3
3
3
2
2
2
2
3
3
3
3

LOOKUP_TABLE FreeFempp_table 5
1.00000000 0.00000000 0.00000000 1.00000000
1.00000000 1.00000000 0.00000000 1.00000000
1.00000000 0.00000000 1.00000000 1.00000000
0.00000000 1.00000000 0.00000000 1.00000000
0.00000000 1.00000000 1.00000000 1.00000000

FIELD FieldData 1
Pressure 1 576 float
3.52011644e-04 9.15707205e-04 6.20642968e-04 7.03807222e-04 1.46829034e-03 1.96994981e-03 9.81692108e-04 1.49479310e-03 9.43168125e-04 1.10301864e-03 1.21118571e-03 1.09753734e-03 1.12648855e-03 8.88846524e-04 1.12606701e-03 7.92964594e-04 2.34558742e-04 6.09891955e-04 3.08624585e-04 4.32143657e-04 9.14853823e-04 1.17553037e-03 1.02234457e-03 1.07694371e-03 4.57500661e-04 8.25209543e-04 6.24325417e-04 8.76312435e-04 9.37356730e-04 6.69719302e-04 7.75422784e-04 6.91296358e-04 2.39539496e-03 2.72694603e-03 1.24140817e-03 2.04233127e-03 2.95151351e-03 3.06028291e-03 1.32842828e-03 2.29466334e-03 1.30900706e-03 1.27125846e-03 1.24985888e-03 1.32534548e-03 1.55298505e-03 1.53467210e-03 2.20244704e-03 1.29732792e-03 1.80350326e-03 1.45502435e-03 1.31723890e-03 1.13461271e-03 1.34948373e-03 1.26166735e-03 1.32190902e-03 1.32259831e-03 1.23342045e-03 1.32750219e-03 1.27820391e-03 1.30244240e-03 1.34036585e-03 1.22284109e-03 1.29264547e-03 1.31841539e-03 3.04879132e-03 2.91658053e-03 1.24758657e-03 2.21456122e-03 2.66533624e-03 2.29691528e-03 9.69142187e-04 1.74508500e-03 9.27692337e-04 8.42330803e-04 7.58149312e-04 8.73135927e-04 9.89801134e-04 1.23255851e-03 2.03168066e-03 1.10379781e-03 2.30187643e-03 1.40264723e-03 1.50888832e-03 1.31923414e-03 1.01561798e-03 8.65959271e-04 1.00857869e-03 8.55572056e-04 1.24650158e-03 1.11279602e-03 1.17401825e-03 1.12505758e-03 9.74040246e-04 1.18080573e-03 1.04075123e-03 1.11404597e-03 1.99450483e-03 1.48174947e-03 1.02188590e-03 1.50487246e-03 9.23526532e-04 3.55776865e-04 6.03282067e-04 7.06605031e-04 1.16635917e-03 9.88807413e-04 1.35038432e-03 1.14972482e-03 9.04567016e-04 1.16375752e-03 1.13047939e-03 8.10849422e-04 1.24176440e-03 9.36636585e-04 1.06993387e-03 1.22163014e-03 6.19299361e-04 2.38317487e-04 3.16817022e-04 4.36060276e-04 8.85491318e-04 4.83326905e-04 7.15692295e-04 9.36927972e-04 6.85924140e-04 1.07072201e-03 8.13163235e-04 7.09593878e-04 1.06819335e-03 1.08655216e-03 1.22509513e-03 9.64595587e-04 1.19698129e-03 1.30422309e-03 1.38381543e-03 1.26661093e-03 1.40092603e-03 1.44984887e-03 1.50190515e-03 1.41879462e-03 1.34915859e-03 1.24851591e-03 1.13922090e-03 1.30515581e-03 7.90780643e-04 1.09770207e-03 9.51289781e-04 1.24847656e-03 1.34628161e-03 1.47425686e-03 1.43099367e-03 1.48353400e-03 1.10327033e-03 1.33294414e-03 1.24504638e-03 1.57083757e-03 1.46647787e-03 1.41644652e-03 1.35209761e-03 1.22106064e-03 1.36624859e-03 1.37250102e-03 1.38978777e-03 1.35656854e-03 1.32161181e-03 1.21558295e-03 1.16795616e-03 1.22276891e-03 1.27693487e-03 1.10774767e-03 1.03567285e-03 1.12006138e-03 1.17726519e-03 1.30436814e-03 1.31704856e-03 1.30618294e-03 1.33968843e-03 1.37703982e-03 1.39231398e-03 1.41554116e-03 1.27870881e-03 1.05095305e-03 1.23960723e-03 1.23431534e-03 1.43131055e-03 1.37633120e-03 1.45568268e-03 1.47111248e-03 1.38132693e-03 1.45053363e-03 1.39267265e-03 1.38386991e-03 1.05868792e-03 9.03286971e-04 8.25455529e-04 1.06757076e-03 7.66631973e-04 6.21601474e-04 5.27749944e-04 8.21723719e-04 5.83444373e-04 5.47618489e-04 5.51516016e-04 7.14889378e-04 7.44703808e-04 8.89175746e-04 9.57813929e-04 6.73794828e-04 1.13987585e-03 1.00637262e-03 1.08946452e-03 9.80605837e-04 8.10457859e-04 7.13389250e-04 7.24846381e-04 5.46987168e-04 1.02890306e-03 8.56580737e-04 9.59569879e-04 7.93367566e-04 6.52694784e-04 8.91766045e-04 7.41867174e-04 9.35462478e-04 4.36615665e-04 2.46060023e-04 3.96383111e-04 5.96888247e-04 5.59641398e-04 8.87705421e-04 1.01133029e-03 8.15505802e-04 8.52895784e-04 1.15719880e-03 1.30063167e-03 1.16227043e-03 9.84439510e-04 6.72681490e-04 5.54196537e-04 6.98421383e-04 6.85157254e-04 6.18611637e-04 6.80881203e-04 4.58153518e-04 8.26622767e-04 1.33531541e-03 9.86294355e-04 1.00317493e-03 6.95194118e-04 6.75349205e-04 7.05928134e-04 5.30255667e-04 7.15437112e-04 5.08057943e-04 5.58254018e-04 6.39405393e-04 1.71093224e-03 1.56845548e-03 1.66471151e-03 1.43240672e-03 1.55351707e-03 1.54045923e-03 1.57075794e-03 1.51455356e-03 1.71346928e-03 1.61859090e-03 1.75723876e-03 1.53605745e-03 1.53732277e-03 1.55677064e-03 1.50155660e-03 1.61808729e-03 1.37602910e-03 1.52043195e-03 1.49987265e-03 1.83906232e-03 1.59765838e-03 1.52583618e-03 1.66786544e-03 1.93767075e-03 1.63863134e-03 1.74861413e-03 1.86274247e-03 2.14685476e-03 2.03907024e-03 1.97072979e-03 1.79011910e-03 1.60681445e-03 1.47760264e-03 1.35605852e-03 1.31796463e-03 1.35426002e-03 1.17878208e-03 9.52421397e-04 8.58707761e-04 9.70524387e-04 1.03193731e-03 7.55296962e-04 6.43018866e-04 8.07672623e-04 8.89574178e-04 1.12207734e-03 1.18732033e-03 1.11097551e-03 1.46479055e-03 1.31697371e-03 1.45664671e-03 1.47268898e-03 1.04395347e-03 7.18963100e-04 9.53677052e-04 9.42967716e-04 1.42434658e-03 1.19032222e-03 1.36474776e-03 1.49230903e-03 1.21956260e-03 1.46807369e-03 1.27047161e-03 1.26233639e-03 7.03478639e-04 5.58293250e-04 4.59497998e-04 7.70670711e-04 5.26453601e-04 5.46718016e-04 5.35440457e-04 7.04712758e-04 4.67237056e-04 5.44692099e-04 6.87248481e-04 6.64926833e-04 6.88589818e-04 6.37781282e-04 6.66729989e-04 4.99750022e-04 8.82218941e-04 6.78637589e-04 7.97648157e-04 6.08005561e-04 6.01478212e-04 6.47293928e-04 5.57777821e-04 4.29205655e-04 7.06797699e-04 4.80388437e-04 6.10742834e-04 4.04802180e-04 3.43323336e-04 5.08049096e-04 3.94551258e-04 5.81507687e-04 5.65598602e-04 8.65855778e-04 1.00824109e-03 8.29762255e-04 1.14456867e-03 1.43323652e-03 1.55231252e-03 1.49678392e-03 1.39363960e-03 1.65649108e-03 1.74480700e-03 1.77549117e-03 1.64404500e-03 1.28146715e-03 1.13916071e-03 1.27515849e-03 7.10511988e-04 9.76747950e-04 7.07984378e-04 7.14493275e-04 1.41145778e-03 1.88972556e-03 1.52776518e-03 1.49904843e-03 8.18628003e-04 1.24166941e-03 9.56218981e-04 9.92712565e-04 1.26415736e-03 8.57219216e-04 1.14134373e-03 1.11450732e-03 1.99841149e-03 1.71517686e-03 1.92803179e-03 2.09892076e-03 1.48986315e-03 1.31457089e-03 1.55629090e-03 1.62962009e-03 1.95201673e-03 1.81497901e-03 2.06040405e-03 2.09183735e-03 1.78778183e-03 2.08740192e-03 1.88465032e-03 1.71998749e-03 2.05934118e-03 1.80444343e-03 1.89395424e-03 2.03754287e-03 1.54798676e-03 1.33545999e-03 1.32681732e-03 1.44580018e-03 1.75509194e-03 1.43061287e-03 1.63296051e-03 1.72717392e-03 1.58275210e-03 1.91163330e-03 1.68692705e-03 1.60148018e-03 1.54492527e-03 1.16474507e-03 1.09830708e-03 1.11434550e-03 8.45015049e-04 5.23162365e-04 4.00547637e-04 6.24653941e-04 6.63775019e-04 2.96037470e-04 2.60470290e-04 4.05788363e-04 5.24435425e-04 7.43210316e-04 8.53459933e-04 7.42600998e-04 1.33746059e-03 1.03620335e-03 1.33277208e-03 1.54922938e-03 6.20901235e-04 2.09526654e-04 5.15488733e-04 6.81589940e-04 1.30140048e-03 8.91123433e-04 1.32160622e-03 1.52330368e-03 1.09528529e-03 1.51514215e-03 1.04587560e-03 9.46984277e-04 2.99417501e-04 2.87548930e-04 3.01564549e-04 3.97333788e-04 5.00966329e-04 8.25524970e-04 9.63115366e-04 7.85614888e-04 7.96376204e-04 1.11948256e-03 1.34313363e-03 1.05678546e-03 9.19397688e-04 6.01700332e-04 5.05795761e-04 6.43717300e-04 5.10395912e-04 3.30180745e-04 4.04505205e-04 1.92575855e-04 7.49046798e-04 1.23907847e-03 9.31505929e-04 9.83780948e-04 2.80801702e-04 5.89721079e-04 2.26525648e-04 1.77689202e-04 5.86535025e-04 1.28812389e-04 4.43993893e-04 4.14932438e-04 1.12097804e-03 1.37692119e-03 1.48645474e-03 1.35706423e-03 1.59155147e-03 1.81687204e-03 1.87481346e-03 1.98491802e-03 1.79064122e-03 1.93351030e-03 2.05326383e-03 2.08337745e-03 2.05588597e-03 1.71285972e-03 1.62895629e-03 1.67734455e-03 1.08531548e-03 1.46041356e-03 1.20628183e-03 1.24755374e-03 1.77889201e-03 2.05221795e-03 1.87588274e-03 2.02956866e-03 1.32767239e-03 1.71082292e-03 1.50120701e-03 1.65005762e-03 1.88830798e-03 1.40063488e-03 1.62753859e-03 1.55894074e-03 3.52011644e-04 9.15707205e-04 1.46829034e-03 1.96994981e-03 3.08624585e-04 2.34558742e-04 6.24325417e-04 4.57500661e-04 2.39539496e-03 2.72694603e-03 2.95151351e-03 3.06028291e-03 3.04879132e-03 2.91658053e-03 2.66533624e-03 2.29691528e-03 1.99450483e-03 1.48174947e-03 9.23526532e-04 3.55776865e-04 2.38317487e-04 3.16817022e-04 4.83326905e-04 7.15692295e-04 9.51289781e-04 7.90780643e-04 1.24504638e-03 1.10327033e-03 8.87705421e-04 1.01133029e-03 1.15719880e-03 1.30063167e-03 1.49987265e-03 1.37602910e-03 1.86274247e-03 1.63863134e-03 1.43323652e-03 1.55231252e-03 1.65649108e-03 1.74480700e-03 1.92803179e-03 1.99841149e-03 2.06040405e-03 1.95201673e-03 1.89395424e-03 2.05934118e-03 1.63296051e-03 1.75509194e-03 2.09526654e-04 5.15488733e-04 8.91123433e-04 1.32160622e-03 1.23907847e-03 9.31505929e-04 5.89721079e-04 2.26525648e-04 1.81687204e-03 1.87481346e-03 1.93351030e-03 2.05326383e-03 2.05221795e-03 1.87588274e-03 1.71082292e-03 1.50120701e-03 
POINT_DATA 289
FIELD FieldData 2
Velocity 3 289 float