# vtk DataFile Version 2.0
./pics/Error_1_5.vtk, Created by Freefem++ 
ASCII
DATASET UNSTRUCTURED_GRID
POINTS 289 float
0 0 0
0.25 0 0
0.5 0 0
0.75 0 0
1 0 0
0 0.25 0
0.25 0.25 0
0.5 0.25 0
0.75 0.25 0
1 0.25 0
0 0.5 0
0.25 0.5 0
0.5 0.5 0
0.75 0.5 0
1 0.5 0
0 0.75 0
0.25 0.75 0
0.5 0.75 0
0.75 0.75 0
1 0.75 0
0 1 0
0.25 1 0
0.5 1 0
0.75 1 0
1 1 0
0.25 0.125 0
0.125 0 0
0 0.125 0
0.125 0.125 0
0.5 0.125 0
0.375 0 0
0.375 0.125 0
0.75 0.125 0
0.625 0 0
0.625 0.125 0
0.875 0.125 0
0.875 0 0
1 0.125 0
0.25 0.375 0
0.125 0.25 0
0 0.375 0
0.125 0.375 0
0.5 0.375 0
0.375 0.25 0
0.375 0.375 0
0.75 0.375 0
0.625 0.25 0
0.625 0.375 0
1 0.375 0
0.875 0.25 0
0.875 0.375 0
0.25 0.625 0
0.125 0.5 0
0 0.625 0
0.125 0.625 0
0.5 0.625 0
0.375 0.5 0
0.375 0.625 0
0.75 0.625 0
0.625 0.5 0
0.625 0.625 0
1 0.625 0
0.875 0.5 0
0.875 0.625 0
0.125 0.875 0
0 0.875 0
0.125 0.75 0
0.25 0.875 0
0.125 1 0
0.5 0.875 0
0.375 0.75 0
0.375 1 0
0.375 0.875 0
0.75 0.875 0
0.625 0.75 0
0.625 1 0
0.625 0.875 0
1 0.875 0
0.875 0.75 0
0.875 1 0
0.875 0.875 0
0.125 0.0625 0
0.0625 0 0
0.25 0.0625 0
0.1875 0.0625 0
0.1875 0 0
0.1875 0.1875 0
0.1875 0.125 0
0 0.0625 0
0.0625 0.0625 0
0.1875 0.25 0
0 0.1875 0
0.0625 0.1875 0
0.0625 0.125 0
0.125 0.1875 0
0.375 0.0625 0
0.3125 0 0
0.5 0.0625 0
0.4375 0.0625 0
0.4375 0 0
0.4375 0.1875 0
0.4375 0.125 0
0.3125 0.0625 0
0.4375 0.25 0
0.25 0.1875 0
0.3125 0.1875 0
0.3125 0.125 0
0.375 0.1875 0
0.625 0.0625 0
0.5625 0 0
0.75 0.0625 0
0.6875 0.0625 0
0.6875 0 0
0.6875 0.1875 0
0.6875 0.125 0
0.5625 0.0625 0
0.6875 0.25 0
0.5 0.1875 0
0.5625 0.1875 0
0.5625 0.125 0
0.625 0.1875 0
0.8125 0 0
0.9375 0.0625 0
0.875 0.0625 0
0.9375 0 0
0.75 0.1875 0
0.8125 0.125 0
0.8125 0.0625 0
0.875 0.1875 0
0.8125 0.1875 0
1 0.0625 0
1 0.1875 0
0.9375 0.25 0
0.9375 0.125 0
0.9375 0.1875 0
0.125 0.3125 0
0.0625 0.25 0
0.25 0.3125 0
0.1875 0.3125 0
0.1875 0.4375 0
0.1875 0.375 0
0 0.3125 0
0.0625 0.3125 0
0.1875 0.5 0
0 0.4375 0
0.0625 0.4375 0
0.0625 0.375 0
0.125 0.4375 0
0.375 0.3125 0
0.3125 0.25 0
0.5 0.3125 0
0.4375 0.3125 0
0.4375 0.4375 0
0.4375 0.375 0
0.3125 0.3125 0
0.4375 0.5 0
0.25 0.4375 0
0.3125 0.4375 0
0.3125 0.375 0
0.375 0.4375 0
0.625 0.3125 0
0.5625 0.25 0
0.75 0.3125 0
0.6875 0.3125 0
0.6875 0.4375 0
0.6875 0.375 0
0.5625 0.3125 0
0.6875 0.5 0
0.5 0.4375 0
0.5625 0.4375 0
0.5625 0.375 0
0.625 0.4375 0
0.875 0.3125 0
0.8125 0.25 0
1 0.3125 0
0.9375 0.3125 0
1 0.4375 0
0.9375 0.4375 0
0.9375 0.375 0
0.8125 0.3125 0
0.9375 0.5 0
0.75 0.4375 0
0.8125 0.4375 0
0.8125 0.375 0
0.875 0.4375 0
0.125 0.5625 0
0.0625 0.5 0
0.25 0.5625 0
0.1875 0.5625 0
0.1875 0.6875 0
0.1875 0.625 0
0 0.5625 0
0.0625 0.5625 0
0.1875 0.75 0
0 0.6875 0
0.0625 0.6875 0
0.0625 0.625 0
0.125 0.6875 0
0.375 0.5625 0
0.3125 0.5 0
0.5 0.5625 0
0.4375 0.5625 0
0.4375 0.6875 0
0.4375 0.625 0
0.3125 0.5625 0
0.4375 0.75 0
0.25 0.6875 0
0.3125 0.6875 0
0.3125 0.625 0
0.375 0.6875 0
0.625 0.5625 0
0.5625 0.5 0
0.75 0.5625 0
0.6875 0.5625 0
0.6875 0.6875 0
0.6875 0.625 0
0.5625 0.5625 0
0.6875 0.75 0
0.5 0.6875 0
0.5625 0.6875 0
0.5625 0.625 0
0.625 0.6875 0
0.875 0.5625 0
0.8125 0.5 0
1 0.5625 0
0.9375 0.5625 0
1 0.6875 0
0.9375 0.6875 0
0.9375 0.625 0
0.8125 0.5625 0
0.9375 0.75 0
0.75 0.6875 0
0.8125 0.6875 0
0.8125 0.625 0
0.875 0.6875 0
0 0.8125 0
0.0625 0.75 0
0.1875 0.8125 0
0.125 0.8125 0
0 0.9375 0
0.0625 0.8125 0
0.0625 0.875 0
0.125 0.9375 0
0.0625 1 0
0.0625 0.9375 0
0.25 0.8125 0
0.1875 1 0
0.1875 0.875 0
0.1875 0.9375 0
0.375 0.8125 0
0.3125 0.75 0
0.5 0.8125 0
0.4375 0.8125 0
0.4375 0.9375 0
0.4375 0.875 0
0.3125 0.8125 0
0.4375 1 0
0.375 0.9375 0
0.3125 1 0
0.25 0.9375 0
0.3125 0.9375 0
0.3125 0.875 0
0.625 0.8125 0
0.5625 0.75 0
0.75 0.8125 0
0.6875 0.8125 0
0.6875 0.9375 0
0.6875 0.875 0
0.5625 0.8125 0
0.6875 1 0
0.625 0.9375 0
0.5625 1 0
0.5 0.9375 0
0.5625 0.9375 0
0.5625 0.875 0
0.875 0.8125 0
0.8125 0.75 0
1 0.8125 0
0.9375 0.8125 0
1 0.9375 0
0.9375 0.9375 0
0.9375 0.875 0
0.8125 0.8125 0
0.9375 1 0
0.875 0.9375 0
0.8125 1 0
0.75 0.9375 0
0.8125 0.9375 0
0.8125 0.875 0

CELLS 576 2240
3 0 82 89
3 82 26 81
3 89 81 28
3 81 89 82
3 26 85 84
3 85 1 83
3 84 83 25
3 83 84 85
3 28 87 86
3 87 25 104
3 86 104 6
3 104 86 87
3 25 87 84
3 87 28 81
3 84 81 26
3 81 84 87
3 0 89 88
3 89 28 93
3 88 93 27
3 93 88 89
3 28 86 94
3 86 6 90
3 94 90 39
3 90 94 86
3 27 92 91
3 92 39 136
3 91 136 5
3 136 91 92
3 39 92 94
3 92 27 93
3 94 93 28
3 93 94 92
3 1 96 102
3 96 30 95
3 102 95 31
3 95 102 96
3 30 99 98
3 99 2 97
3 98 97 29
3 97 98 99
3 31 101 100
3 101 29 117
3 100 117 7
3 117 100 101
3 29 101 98
3 101 31 95
3 98 95 30
3 95 98 101
3 1 102 83
3 102 31 106
3 83 106 25
3 106 83 102
3 31 100 107
3 100 7 103
3 107 103 43
3 103 107 100
3 25 105 104
3 105 43 149
3 104 149 6
3 149 104 105
3 43 105 107
3 105 25 106
3 107 106 31
3 106 107 105
3 2 109 115
3 109 33 108
3 115 108 34
3 108 115 109
3 33 112 111
3 112 3 110
3 111 110 32
3 110 111 112
3 34 114 113
3 114 32 125
3 113 125 8
3 125 113 114
3 32 114 111
3 114 34 108
3 111 108 33
3 108 111 114
3 2 115 97
3 115 34 119
3 97 119 29
3 119 97 115
3 34 113 120
3 113 8 116
3 120 116 46
3 116 120 113
3 29 118 117
3 118 46 161
3 117 161 7
3 161 117 118
3 46 118 120
3 118 29 119
3 120 119 34
3 119 120 118
3 3 121 110
3 121 36 127
3 110 127 32
3 127 110 121
3 36 124 123
3 124 4 122
3 123 122 35
3 122 123 124
3 32 126 125
3 126 35 129
3 125 129 8
3 129 125 126
3 35 126 123
3 126 32 127
3 123 127 36
3 127 123 126
3 8 129 173
3 129 35 128
3 173 128 49
3 128 173 129
3 35 122 133
3 122 4 130
3 133 130 37
3 130 133 122
3 49 134 132
3 134 37 131
3 132 131 9
3 131 132 134
3 37 134 133
3 134 49 128
3 133 128 35
3 128 133 134
3 5 136 142
3 136 39 135
3 142 135 41
3 135 142 136
3 39 90 138
3 90 6 137
3 138 137 38
3 137 138 90
3 41 140 139
3 140 38 156
3 139 156 11
3 156 139 140
3 38 140 138
3 140 41 135
3 138 135 39
3 135 138 140
3 5 142 141
3 142 41 146
3 141 146 40
3 146 141 142
3 41 139 147
3 139 11 143
3 147 143 52
3 143 147 139
3 40 145 144
3 145 52 186
3 144 186 10
3 186 144 145
3 52 145 147
3 145 40 146
3 147 146 41
3 146 147 145
3 6 149 154
3 149 43 148
3 154 148 44
3 148 154 149
3 43 103 151
3 103 7 150
3 151 150 42
3 150 151 103
3 44 153 152
3 153 42 168
3 152 168 12
3 168 152 153
3 42 153 151
3 153 44 148
3 151 148 43
3 148 151 153
3 6 154 137
3 154 44 158
3 137 158 38
3 158 137 154
3 44 152 159
3 152 12 155
3 159 155 56
3 155 159 152
3 38 157 156
3 157 56 199
3 156 199 11
3 199 156 157
3 56 157 159
3 157 38 158
3 159 158 44
3 158 159 157
3 7 161 166
3 161 46 160
3 166 160 47
3 160 166 161
3 46 116 163
3 116 8 162
3 163 162 45
3 162 163 116
3 47 165 164
3 165 45 181
3 164 181 13
3 181 164 165
3 45 165 163
3 165 47 160
3 163 160 46
3 160 163 165
3 7 166 150
3 166 47 170
3 150 170 42
3 170 150 166
3 47 164 171
3 164 13 167
3 171 167 59
3 167 171 164
3 42 169 168
3 169 59 211
3 168 211 12
3 211 168 169
3 59 169 171
3 169 42 170
3 171 170 47
3 170 171 169
3 8 173 179
3 173 49 172
3 179 172 50
3 172 179 173
3 49 132 175
3 132 9 174
3 175 174 48
3 174 175 132
3 50 178 177
3 178 48 176
3 177 176 14
3 176 177 178
3 48 178 175
3 178 50 172
3 175 172 49
3 172 175 178
3 8 179 162
3 179 50 183
3 162 183 45
3 183 162 179
3 50 177 184
3 177 14 180
3 184 180 62
3 180 184 177
3 45 182 181
3 182 62 223
3 181 223 13
3 223 181 182
3 62 182 184
3 182 45 183
3 184 183 50
3 183 184 182
3 10 186 192
3 186 52 185
3 192 185 54
3 185 192 186
3 52 143 188
3 143 11 187
3 188 187 51
3 187 188 143
3 54 190 189
3 190 51 206
3 189 206 16
3 206 189 190
3 51 190 188
3 190 54 185
3 188 185 52
3 185 188 190
3 10 192 191
3 192 54 196
3 191 196 53
3 196 191 192
3 54 189 197
3 189 16 193
3 197 193 66
3 193 197 189
3 53 195 194
3 195 66 236
3 194 236 15
3 236 194 195
3 66 195 197
3 195 53 196
3 197 196 54
3 196 197 195
3 11 199 204
3 199 56 198
3 204 198 57
3 198 204 199
3 56 155 201
3 155 12 200
3 201 200 55
3 200 201 155
3 57 203 202
3 203 55 218
3 202 218 17
3 218 202 203
3 55 203 201
3 203 57 198
3 201 198 56
3 198 201 203
3 11 204 187
3 204 57 208
3 187 208 51
3 208 187 204
3 57 202 209
3 202 17 205
3 209 205 70
3 205 209 202
3 51 207 206
3 207 70 250
3 206 250 16
3 250 206 207
3 70 207 209
3 207 51 208
3 209 208 57
3 208 209 207
3 12 211 216
3 211 59 210
3 216 210 60
3 210 216 211
3 59 167 213
3 167 13 212
3 213 212 58
3 212 213 167
3 60 215 214
3 215 58 231
3 214 231 18
3 231 214 215
3 58 215 213
3 215 60 210
3 213 210 59
3 210 213 215
3 12 216 200
3 216 60 220
3 200 220 55
3 220 200 216
3 60 214 221
3 214 18 217
3 221 217 74
3 217 221 214
3 55 219 218
3 219 74 263
3 218 263 17
3 263 218 219
3 74 219 221
3 219 55 220
3 221 220 60
3 220 221 219
3 13 223 229
3 223 62 222
3 229 222 63
3 222 229 223
3 62 180 225
3 180 14 224
3 225 224 61
3 224 225 180
3 63 228 227
3 228 61 226
3 227 226 19
3 226 227 228
3 61 228 225
3 228 63 222
3 225 222 62
3 222 225 228
3 13 229 212
3 229 63 233
3 212 233 58
3 233 212 229
3 63 227 234
3 227 19 230
3 234 230 78
3 230 234 227
3 58 232 231
3 232 78 276
3 231 276 18
3 276 231 232
3 78 232 234
3 232 58 233
3 234 233 63
3 233 234 232
3 15 236 235
3 236 66 240
3 235 240 65
3 240 235 236
3 66 193 238
3 193 16 237
3 238 237 64
3 237 238 193
3 65 241 239
3 241 64 244
3 239 244 20
3 244 239 241
3 64 241 238
3 241 65 240
3 238 240 66
3 240 238 241
3 20 244 243
3 244 64 242
3 243 242 68
3 242 243 244
3 64 237 247
3 237 16 245
3 247 245 67
3 245 247 237
3 68 248 246
3 248 67 259
3 246 259 21
3 259 246 248
3 67 248 247
3 248 68 242
3 247 242 64
3 242 247 248
3 16 250 255
3 250 70 249
3 255 249 72
3 249 255 250
3 70 205 252
3 205 17 251
3 252 251 69
3 251 252 205
3 72 254 253
3 254 69 272
3 253 272 22
3 272 253 254
3 69 254 252
3 254 72 249
3 252 249 70
3 249 252 254
3 16 255 245
3 255 72 261
3 245 261 67
3 261 245 255
3 72 253 257
3 253 22 256
3 257 256 71
3 256 257 253
3 67 260 259
3 260 71 258
3 259 258 21
3 258 259 260
3 71 260 257
3 260 67 261
3 257 261 72
3 261 257 260
3 17 263 268
3 263 74 262
3 268 262 76
3 262 268 263
3 74 217 265
3 217 18 264
3 265 264 73
3 264 265 217
3 76 267 266
3 267 73 286
3 266 286 23
3 286 266 267
3 73 267 265
3 267 76 262
3 265 262 74
3 262 265 267
3 17 268 251
3 268 76 274
3 251 274 69
3 274 251 268
3 76 266 270
3 266 23 269
3 270 269 75
3 269 270 266
3 69 273 272
3 273 75 271
3 272 271 22
3 271 272 273
3 75 273 270
3 273 69 274
3 270 274 76
3 274 270 273
3 18 276 282
3 276 78 275
3 282 275 80
3 275 282 276
3 78 230 278
3 230 19 277
3 278 277 77
3 277 278 230
3 80 281 280
3 281 77 279
3 280 279 24
3 279 280 281
3 77 281 278
3 281 80 275
3 278 275 78
3 275 278 281
3 18 282 264
3 282 80 288
3 264 288 73
3 288 264 282
3 80 280 284
3 280 24 283
3 284 283 79
3 283 284 280
3 73 287 286
3 287 79 285
3 286 285 23
3 285 286 287
3 79 287 284
3 287 73 288
3 284 288 80
3 288 284 287
2 0 82
2 82 26
2 26 85
2 85 1
2 27 88
2 88 0
2 5 91
2 91 27
2 1 96
2 96 30
2 30 99
2 99 2
2 2 109
2 109 33
2 33 112
2 112 3
2 3 121
2 121 36
2 36 124
2 124 4
2 4 130
2 130 37
2 37 131
2 131 9
2 40 141
2 141 5
2 10 144
2 144 40
2 9 174
2 174 48
2 48 176
2 176 14
2 53 191
2 191 10
2 15 194
2 194 53
2 14 224
2 224 61
2 61 226
2 226 19
2 65 235
2 235 15
2 20 239
2 239 65
2 68 243
2 243 20
2 21 246
2 246 68
2 22 256
2 256 71
2 71 258
2 258 21
2 23 269
2 269 75
2 75 271
2 271 22
2 19 277
2 277 77
2 77 279
2 279 24
2 24 283
2 283 79
2 79 285
2 285 23

CELL_TYPES 576
5 5 5 5 5 5 5 5 5 5 5 5 5 5 5 5 5 5 5 5 5 5 5 5 5 5 5 5 5 5 5 5 5 5 5 5 5 5 5 5 5 5 5 5 5 5 5 5 5 5 5 5 5 5 5 5 5 5 5 5 5 5 5 5 5 5 5 5 5 5 5 5 5 5 5 5 5 5 5 5 5 5 5 5 5 5 5 5 5 5 5 5 5 5 5 5 5 5 5 5 5 5 5 5 5 5 5 5 5 5 5 5 5 5 5 5 5 5 5 5 5 5 5 5 5 5 5 5 5 5 5 5 5 5 5 5 5 5 5 5 5 5 5 5 5 5 5 5 5 5 5 5 5 5 5 5 5 5 5 5 5 5 5 5 5 5 5 5 5 5 5 5 5 5 5 5 5 5 5 5 5 5 5 5 5 5 5 5 5 5 5 5 5 5 5 5 5 5 5 5 5 5 5 5 5 5 5 5 5 5 5 5 5 5 5 5 5 5 5 5 5 5 5 5 5 5 5 5 5 5 5 5 5 5 5 5 5 5 5 5 5 5 5 5 5 5 5 5 5 5 5 5 5 5 5 5 5 5 5 5 5 5 5 5 5 5 5 5 5 5 5 5 5 5 5 5 5 5 5 5 5 5 5 5 5 5 5 5 5 5 5 5 5 5 5 5 5 5 5 5 5 5 5 5 5 5 5 5 5 5 5 5 5 5 5 5 5 5 5 5 5 5 5 5 5 5 5 5 5 5 5 5 5 5 5 5 5 5 5 5 5 5 5 5 5 5 5 5 5 5 5 5 5 5 5 5 5 5 5 5 5 5 5 5 5 5 5 5 5 5 5 5 5 5 5 5 5 5 5 5 5 5 5 5 5 5 5 5 5 5 5 5 5 5 5 5 5 5 5 5 5 5 5 5 5 5 5 5 5 5 5 5 5 5 5 5 5 5 5 5 5 5 5 5 5 5 5 5 5 5 5 5 5 5 5 5 5 5 5 5 5 5 5 5 5 5 5 5 5 5 5 5 5 5 5 5 5 5 5 5 5 5 5 5 5 5 5 5 5 5 5 5 5 5 5 5 5 5 5 5 5 5 5 5 5 5 5 5 5 5 5 5 5 5 5 5 5 5 5 5 5 5 5 5 5 5 5 5 5 5 5 5 3 3 3 3 3 3 3 3 3 3 3 3 3 3 3 3 3 3 3 3 3 3 3 3 3 3 3 3 3 3 3 3 3 3 3 3 3 3 3 3 3 3 3 3 3 3 3 3 3 3 3 3 3 3 3 3 3 3 3 3 3 3 3 3 
CELL_DATA 576
Scalars  Label int 1
LOOKUP_TABLE FreeFempp_table
0
0
0
0
0
0
0
0
0
0
0
0
0
0
0
0
0
0
0
0
0
0
0
0
0
0
0
0
0
0
0
0
0
0
0
0
0
0
0
0
0
0
0
0
0
0
0
0
0
0
0
0
0
0
0
0
0
0
0
0
0
0
0
0
0
0
0
0
0
0
0
0
0
0
0
0
0
0
0
0
0
0
0
0
0
0
0
0
0
0
0
0
0
0
0
0
0
0
0
0
0
0
0
0
0
0
0
0
0
0
0
0
0
0
0
0
0
0
0
0
0
0
0
0
0
0
0
0
0
0
0
0
0
0
0
0
0
0
0
0
0
0
0
0
0
0
0
0
0
0
0
0
0
0
0
0
0
0
0
0
0
0
0
0
0
0
0
0
0
0
0
0
0
0
0
0
0
0
0
0
0
0
0
0
0
0
0
0
0
0
0
0
0
0
0
0
0
0
0
0
0
0
0
0
0
0
0
0
0
0
0
0
0
0
0
0
0
0
0
0
0
0
0
0
0
0
0
0
0
0
0
0
0
0
0
0
0
0
0
0
0
0
0
0
0
0
0
0
0
0
0
0
0
0
0
0
0
0
0
0
0
0
0
0
0
0
0
0
0
0
0
0
0
0
0
0
0
0
0
0
0
0
0
0
0
0
0
0
0
0
0
0
0
0
0
0
0
0
0
0
0
0
0
0
0
0
0
0
0
0
0
0
0
0
0
0
0
0
0
0
0
0
0
0
0
0
0
0
0
0
0
0
0
0
0
0
0
0
0
0
0
0
0
0
0
0
0
0
0
0
0
0
0
0
0
0
0
0
0
0
0
0
0
0
0
0
0
0
0
0
0
0
0
0
0
0
0
0
0
0
0
0
0
0
0
0
0
0
0
0
0
0
0
0
0
0
0
0
0
0
0
0
0
0
0
0
0
0
0
0
0
0
0
0
0
0
0
0
0
0
0
0
0
0
0
0
0
0
0
0
0
0
0
0
0
0
0
0
0
0
0
0
0
0
0
0
0
0
0
0
0
0
0
0
0
0
0
0
0
0
0
0
0
0
0
0
0
0
0
0
0
0
0
0
0
0
0
0
0
0
0
0
0
0
0
0
0
0
0
0
0
0
0
0
0
0
0
0
0
0
0
0
0
0
0
0
0
0
0
0
0
0
1
1
1
1
4
4
4
4
1
1
1
1
1
1
1
1
1
1
1
1
2
2
2
2
4
4
4
4
2
2
2
2
4
4
4
4
2
2
2
2
4
4
4
4
3
3
3
3
3
3
3
3
3
3
3
3
2
2
2
2
3
3
3
3

LOOKUP_TABLE FreeFempp_table 5
1.00000000 0.00000000 0.00000000 1.00000000
1.00000000 1.00000000 0.00000000 1.00000000
1.00000000 0.00000000 1.00000000 1.00000000
0.00000000 1.00000000 0.00000000 1.00000000
0.00000000 1.00000000 1.00000000 1.00000000

FIELD FieldData 1
Pressure 1 576 float
4.04773687e-04 1.01444626e-03 6.41158957e-04 7.43083947e-04 1.60143722e-03 2.13484908e-03 1.12776645e-03 1.65819388e-03 9.79461707e-04 1.13715127e-03 1.23982842e-03 1.17199461e-03 1.25250127e-03 9.89005319e-04 1.21199607e-03 8.53235309e-04 2.84704263e-04 6.86767919e-04 3.68663255e-04 4.40400589e-04 9.76361567e-04 1.21601415e-03 1.05920609e-03 1.11378194e-03 5.15291234e-04 8.69617856e-04 6.84251252e-04 8.89866380e-04 9.87593085e-04 6.77237287e-04 8.17858090e-04 7.47405342e-04 2.58765416e-03 2.94021005e-03 1.58515188e-03 2.35693762e-03 3.17832176e-03 3.29255755e-03 1.78086571e-03 2.68783886e-03 1.35557679e-03 1.32056768e-03 1.28201849e-03 1.42843055e-03 1.73055311e-03 1.70838088e-03 2.57348828e-03 1.71927258e-03 2.04718090e-03 1.61862280e-03 1.46481546e-03 1.38458703e-03 1.45052315e-03 1.31311116e-03 1.37304480e-03 1.35390030e-03 1.31981820e-03 1.37655099e-03 1.32356584e-03 1.33047439e-03 1.37006538e-03 1.26050028e-03 1.33511156e-03 1.41380436e-03 3.27808387e-03 3.13415914e-03 1.67083670e-03 2.59273266e-03 2.86307954e-03 2.47259298e-03 1.20827847e-03 2.05663382e-03 9.06358298e-04 7.98465277e-04 7.20579061e-04 8.04534764e-04 1.12687110e-03 1.38139888e-03 2.38032290e-03 1.48686010e-03 2.69493624e-03 1.56746514e-03 1.68367068e-03 1.76607666e-03 1.00792095e-03 8.38293403e-04 9.65123996e-04 8.44297931e-04 1.34755753e-03 1.06512301e-03 1.19831320e-03 1.15712103e-03 9.83783393e-04 1.23115152e-03 1.08978979e-03 1.20809989e-03 2.15750025e-03 1.61650416e-03 1.22426520e-03 1.70026184e-03 1.02353061e-03 4.09061002e-04 6.60252292e-04 7.57890986e-04 1.22155005e-03 1.04580226e-03 1.39557256e-03 1.22550945e-03 1.00783736e-03 1.28423597e-03 1.23749301e-03 8.97356949e-04 1.30230619e-03 1.01318548e-03 1.13880890e-03 1.26180227e-03 7.00280711e-04 2.89145362e-04 3.80803132e-04 4.47065046e-04 9.54893883e-04 5.48985729e-04 7.66771496e-04 9.31009767e-04 6.95502618e-04 1.10736862e-03 8.68363597e-04 7.80737319e-04 1.08520815e-03 1.14396657e-03 1.28806056e-03 1.00776250e-03 1.23729696e-03 1.33344496e-03 1.41377083e-03 1.29609392e-03 1.44633488e-03 1.48029672e-03 1.53308501e-03 1.44462287e-03 1.37584948e-03 1.27693301e-03 1.16882764e-03 1.34826056e-03 8.55968974e-04 1.14298461e-03 1.02227472e-03 1.26740732e-03 1.37487461e-03 1.49943016e-03 1.45994348e-03 1.53143541e-03 1.17976184e-03 1.38362416e-03 1.32678729e-03 1.59256265e-03 1.53878133e-03 1.43679406e-03 1.41978974e-03 1.26902654e-03 1.39323110e-03 1.40004570e-03 1.41649286e-03 1.38996739e-03 1.34985859e-03 1.24394009e-03 1.19463552e-03 1.25644659e-03 1.30264950e-03 1.13287533e-03 1.05914893e-03 1.14607415e-03 1.20559358e-03 1.33343658e-03 1.35114836e-03 1.33313995e-03 1.37139333e-03 1.40594586e-03 1.42025086e-03 1.44226523e-03 1.30567583e-03 1.07513100e-03 1.26491557e-03 1.25870307e-03 1.45784288e-03 1.40200625e-03 1.48107251e-03 1.49719545e-03 1.40626729e-03 1.47687818e-03 1.41850195e-03 1.41098269e-03 1.08643027e-03 8.89184768e-04 8.10961996e-04 1.03817170e-03 7.57041329e-04 6.07590249e-04 5.46650321e-04 7.99673027e-04 5.82189765e-04 5.64730784e-04 5.69398515e-04 7.27789011e-04 7.25747785e-04 8.67018942e-04 9.30805807e-04 6.63946616e-04 1.11021963e-03 9.82511672e-04 1.06510601e-03 1.00635365e-03 7.90198974e-04 7.24279671e-04 7.05977494e-04 5.68011194e-04 1.00659381e-03 8.36425985e-04 9.38679499e-04 8.15147534e-04 6.39597361e-04 9.15676530e-04 7.27652048e-04 9.13783850e-04 4.33081092e-04 2.94995814e-04 3.94632458e-04 5.75988903e-04 5.65215596e-04 8.76598409e-04 1.02409453e-03 7.97773595e-04 8.61281413e-04 1.17667671e-03 1.32607622e-03 1.16674323e-03 9.85817285e-04 6.82542624e-04 5.32938808e-04 7.07197643e-04 6.57329860e-04 6.17105688e-04 6.87787659e-04 4.73241525e-04 8.41887144e-04 1.34092115e-03 1.00558263e-03 1.01457199e-03 7.03315309e-04 6.80701516e-04 7.11331377e-04 5.44559094e-04 7.12763576e-04 5.19955531e-04 5.54008817e-04 6.38120808e-04 1.73459598e-03 1.64684665e-03 1.75400474e-03 1.48648664e-03 1.60602317e-03 1.57423271e-03 1.61301927e-03 1.53891393e-03 1.79124309e-03 1.67469180e-03 1.78860058e-03 1.57244410e-03 1.56204379e-03 1.58974796e-03 1.53116405e-03 1.68182596e-03 1.46358623e-03 1.58163009e-03 1.59572659e-03 1.86598639e-03 1.64689473e-03 1.59566046e-03 1.74229231e-03 1.96843361e-03 1.74152281e-03 1.84191903e-03 1.92581443e-03 2.12451490e-03 2.07586004e-03 1.99574442e-03 1.88831275e-03 1.68637920e-03 1.50457351e-03 1.38060213e-03 1.34392141e-03 1.37819571e-03 1.20195094e-03 9.74203111e-04 8.78919382e-04 9.92787420e-04 1.05532829e-03 7.74358748e-04 6.61836064e-04 7.96315435e-04 8.99609644e-04 1.14337762e-03 1.21080386e-03 1.13353645e-03 1.48868083e-03 1.33871369e-03 1.47904782e-03 1.50436210e-03 1.06291380e-03 6.98333373e-04 9.70985566e-04 9.69398185e-04 1.45157427e-03 1.21515861e-03 1.41795480e-03 1.53802359e-03 1.25896418e-03 1.51019380e-03 1.30148348e-03 1.28301268e-03 7.05703511e-04 5.46777446e-04 4.60615847e-04 7.52003922e-04 5.46140305e-04 5.63842885e-04 5.50935569e-04 7.13334011e-04 4.83199896e-04 5.37868298e-04 6.83328079e-04 6.68765686e-04 6.94923801e-04 6.47671463e-04 6.78799755e-04 5.17647713e-04 8.62672925e-04 6.61493454e-04 7.79395923e-04 5.95956808e-04 6.09067909e-04 6.44488842e-04 5.62544621e-04 4.43390600e-04 6.89640117e-04 4.66064404e-04 5.94168494e-04 3.96335497e-04 3.59336118e-04 4.97800182e-04 4.12457332e-04 5.65833005e-04 5.58186613e-04 8.65701353e-04 1.01078185e-03 8.38314765e-04 1.16016285e-03 1.46539311e-03 1.59131549e-03 1.50390668e-03 1.41819275e-03 1.70220970e-03 1.79719657e-03 1.78583933e-03 1.65282993e-03 1.31215842e-03 1.16392761e-03 1.29519100e-03 7.13086047e-04 9.89219174e-04 7.07843748e-04 7.09474960e-04 1.44800125e-03 1.90126384e-03 1.56988949e-03 1.52858521e-03 8.20362999e-04 1.26227480e-03 9.60941077e-04 9.93355759e-04 1.27307256e-03 8.54726823e-04 1.14673981e-03 1.13102829e-03 2.03205971e-03 1.79792021e-03 2.01064488e-03 2.06670002e-03 1.57064816e-03 1.35401404e-03 1.62355229e-03 1.65134808e-03 2.04070495e-03 1.89163955e-03 2.12177541e-03 2.11446709e-03 1.86249230e-03 2.09967932e-03 1.89275760e-03 1.80269475e-03 2.12086551e-03 1.88694138e-03 1.97803997e-03 2.05530063e-03 1.62433926e-03 1.37632817e-03 1.40029867e-03 1.45659642e-03 1.82464928e-03 1.49616424e-03 1.65525556e-03 1.69763388e-03 1.58036104e-03 1.91646651e-03 1.74528197e-03 1.68048230e-03 1.57376204e-03 1.21407234e-03 1.16188813e-03 1.14519300e-03 8.77537241e-04 5.43796807e-04 4.27794526e-04 6.00989209e-04 7.21107936e-04 3.33070522e-04 2.76626233e-04 3.60376551e-04 4.93702712e-04 7.62844400e-04 8.70476535e-04 7.86731194e-04 1.40190509e-03 1.07427663e-03 1.39576045e-03 1.57650281e-03 6.54434145e-04 1.82646560e-04 5.72656398e-04 7.03500467e-04 1.37808570e-03 9.66459513e-04 1.37474132e-03 1.50863966e-03 1.11840095e-03 1.54791842e-03 1.12165092e-03 1.00433384e-03 2.92586104e-04 3.02133325e-04 2.94493599e-04 4.03307204e-04 4.96775785e-04 8.26234696e-04 9.73124173e-04 7.86335964e-04 8.04771960e-04 1.14135025e-03 1.34472304e-03 1.07789587e-03 9.26748151e-04 6.03585679e-04 5.05752279e-04 6.45336579e-04 4.92997933e-04 3.32893309e-04 3.82335595e-04 1.87337704e-04 7.60385301e-04 1.26884074e-03 9.45348933e-04 9.81329475e-04 2.48147349e-04 5.86979324e-04 2.06728640e-04 1.55298985e-04 5.79692540e-04 8.75395926e-05 4.38103569e-04 4.16502997e-04 1.12715387e-03 1.39200594e-03 1.51501910e-03 1.38217292e-03 1.62817771e-03 1.87654293e-03 1.94424554e-03 1.99659984e-03 1.85488735e-03 2.01467425e-03 2.11319630e-03 2.10139249e-03 2.06628372e-03 1.76612544e-03 1.67628156e-03 1.72708754e-03 1.09382160e-03 1.49276666e-03 1.22198206e-03 1.26579625e-03 1.84611231e-03 2.11224309e-03 1.95454992e-03 2.04491150e-03 1.36011140e-03 1.77263957e-03 1.54645054e-03 1.65449735e-03 1.89383281e-03 1.43461919e-03 1.67302124e-03 1.60834834e-03 4.04773687e-04 1.01444626e-03 1.60143722e-03 2.13484908e-03 3.68663255e-04 2.84704263e-04 6.84251252e-04 5.15291234e-04 2.58765416e-03 2.94021005e-03 3.17832176e-03 3.29255755e-03 3.27808387e-03 3.13415914e-03 2.86307954e-03 2.47259298e-03 2.15750025e-03 1.61650416e-03 1.02353061e-03 4.09061002e-04 2.89145362e-04 3.80803132e-04 5.48985729e-04 7.66771496e-04 1.02227472e-03 8.55968974e-04 1.32678729e-03 1.17976184e-03 8.76598409e-04 1.02409453e-03 1.17667671e-03 1.32607622e-03 1.59572659e-03 1.46358623e-03 1.92581443e-03 1.74152281e-03 1.46539311e-03 1.59131549e-03 1.70220970e-03 1.79719657e-03 2.01064488e-03 2.03205971e-03 2.12177541e-03 2.04070495e-03 1.97803997e-03 2.12086551e-03 1.65525556e-03 1.82464928e-03 1.82646560e-04 5.72656398e-04 9.66459513e-04 1.37474132e-03 1.26884074e-03 9.45348933e-04 5.86979324e-04 2.06728640e-04 1.87654293e-03 1.94424554e-03 2.01467425e-03 2.11319630e-03 2.11224309e-03 1.95454992e-03 1.77263957e-03 1.54645054e-03 
POINT_DATA 289
FIELD FieldData 2
Velocity 3 289 float