# vtk DataFile Version 2.0
./pics/Error_1_10.vtk, Created by Freefem++ 
ASCII
DATASET UNSTRUCTURED_GRID
POINTS 289 float
0 0 0
0.25 0 0
0.5 0 0
0.75 0 0
1 0 0
0 0.25 0
0.25 0.25 0
0.5 0.25 0
0.75 0.25 0
1 0.25 0
0 0.5 0
0.25 0.5 0
0.5 0.5 0
0.75 0.5 0
1 0.5 0
0 0.75 0
0.25 0.75 0
0.5 0.75 0
0.75 0.75 0
1 0.75 0
0 1 0
0.25 1 0
0.5 1 0
0.75 1 0
1 1 0
0.25 0.125 0
0.125 0 0
0 0.125 0
0.125 0.125 0
0.5 0.125 0
0.375 0 0
0.375 0.125 0
0.75 0.125 0
0.625 0 0
0.625 0.125 0
0.875 0.125 0
0.875 0 0
1 0.125 0
0.25 0.375 0
0.125 0.25 0
0 0.375 0
0.125 0.375 0
0.5 0.375 0
0.375 0.25 0
0.375 0.375 0
0.75 0.375 0
0.625 0.25 0
0.625 0.375 0
1 0.375 0
0.875 0.25 0
0.875 0.375 0
0.25 0.625 0
0.125 0.5 0
0 0.625 0
0.125 0.625 0
0.5 0.625 0
0.375 0.5 0
0.375 0.625 0
0.75 0.625 0
0.625 0.5 0
0.625 0.625 0
1 0.625 0
0.875 0.5 0
0.875 0.625 0
0.125 0.875 0
0 0.875 0
0.125 0.75 0
0.25 0.875 0
0.125 1 0
0.5 0.875 0
0.375 0.75 0
0.375 1 0
0.375 0.875 0
0.75 0.875 0
0.625 0.75 0
0.625 1 0
0.625 0.875 0
1 0.875 0
0.875 0.75 0
0.875 1 0
0.875 0.875 0
0.125 0.0625 0
0.0625 0 0
0.25 0.0625 0
0.1875 0.0625 0
0.1875 0 0
0.1875 0.1875 0
0.1875 0.125 0
0 0.0625 0
0.0625 0.0625 0
0.1875 0.25 0
0 0.1875 0
0.0625 0.1875 0
0.0625 0.125 0
0.125 0.1875 0
0.375 0.0625 0
0.3125 0 0
0.5 0.0625 0
0.4375 0.0625 0
0.4375 0 0
0.4375 0.1875 0
0.4375 0.125 0
0.3125 0.0625 0
0.4375 0.25 0
0.25 0.1875 0
0.3125 0.1875 0
0.3125 0.125 0
0.375 0.1875 0
0.625 0.0625 0
0.5625 0 0
0.75 0.0625 0
0.6875 0.0625 0
0.6875 0 0
0.6875 0.1875 0
0.6875 0.125 0
0.5625 0.0625 0
0.6875 0.25 0
0.5 0.1875 0
0.5625 0.1875 0
0.5625 0.125 0
0.625 0.1875 0
0.8125 0 0
0.9375 0.0625 0
0.875 0.0625 0
0.9375 0 0
0.75 0.1875 0
0.8125 0.125 0
0.8125 0.0625 0
0.875 0.1875 0
0.8125 0.1875 0
1 0.0625 0
1 0.1875 0
0.9375 0.25 0
0.9375 0.125 0
0.9375 0.1875 0
0.125 0.3125 0
0.0625 0.25 0
0.25 0.3125 0
0.1875 0.3125 0
0.1875 0.4375 0
0.1875 0.375 0
0 0.3125 0
0.0625 0.3125 0
0.1875 0.5 0
0 0.4375 0
0.0625 0.4375 0
0.0625 0.375 0
0.125 0.4375 0
0.375 0.3125 0
0.3125 0.25 0
0.5 0.3125 0
0.4375 0.3125 0
0.4375 0.4375 0
0.4375 0.375 0
0.3125 0.3125 0
0.4375 0.5 0
0.25 0.4375 0
0.3125 0.4375 0
0.3125 0.375 0
0.375 0.4375 0
0.625 0.3125 0
0.5625 0.25 0
0.75 0.3125 0
0.6875 0.3125 0
0.6875 0.4375 0
0.6875 0.375 0
0.5625 0.3125 0
0.6875 0.5 0
0.5 0.4375 0
0.5625 0.4375 0
0.5625 0.375 0
0.625 0.4375 0
0.875 0.3125 0
0.8125 0.25 0
1 0.3125 0
0.9375 0.3125 0
1 0.4375 0
0.9375 0.4375 0
0.9375 0.375 0
0.8125 0.3125 0
0.9375 0.5 0
0.75 0.4375 0
0.8125 0.4375 0
0.8125 0.375 0
0.875 0.4375 0
0.125 0.5625 0
0.0625 0.5 0
0.25 0.5625 0
0.1875 0.5625 0
0.1875 0.6875 0
0.1875 0.625 0
0 0.5625 0
0.0625 0.5625 0
0.1875 0.75 0
0 0.6875 0
0.0625 0.6875 0
0.0625 0.625 0
0.125 0.6875 0
0.375 0.5625 0
0.3125 0.5 0
0.5 0.5625 0
0.4375 0.5625 0
0.4375 0.6875 0
0.4375 0.625 0
0.3125 0.5625 0
0.4375 0.75 0
0.25 0.6875 0
0.3125 0.6875 0
0.3125 0.625 0
0.375 0.6875 0
0.625 0.5625 0
0.5625 0.5 0
0.75 0.5625 0
0.6875 0.5625 0
0.6875 0.6875 0
0.6875 0.625 0
0.5625 0.5625 0
0.6875 0.75 0
0.5 0.6875 0
0.5625 0.6875 0
0.5625 0.625 0
0.625 0.6875 0
0.875 0.5625 0
0.8125 0.5 0
1 0.5625 0
0.9375 0.5625 0
1 0.6875 0
0.9375 0.6875 0
0.9375 0.625 0
0.8125 0.5625 0
0.9375 0.75 0
0.75 0.6875 0
0.8125 0.6875 0
0.8125 0.625 0
0.875 0.6875 0
0 0.8125 0
0.0625 0.75 0
0.1875 0.8125 0
0.125 0.8125 0
0 0.9375 0
0.0625 0.8125 0
0.0625 0.875 0
0.125 0.9375 0
0.0625 1 0
0.0625 0.9375 0
0.25 0.8125 0
0.1875 1 0
0.1875 0.875 0
0.1875 0.9375 0
0.375 0.8125 0
0.3125 0.75 0
0.5 0.8125 0
0.4375 0.8125 0
0.4375 0.9375 0
0.4375 0.875 0
0.3125 0.8125 0
0.4375 1 0
0.375 0.9375 0
0.3125 1 0
0.25 0.9375 0
0.3125 0.9375 0
0.3125 0.875 0
0.625 0.8125 0
0.5625 0.75 0
0.75 0.8125 0
0.6875 0.8125 0
0.6875 0.9375 0
0.6875 0.875 0
0.5625 0.8125 0
0.6875 1 0
0.625 0.9375 0
0.5625 1 0
0.5 0.9375 0
0.5625 0.9375 0
0.5625 0.875 0
0.875 0.8125 0
0.8125 0.75 0
1 0.8125 0
0.9375 0.8125 0
1 0.9375 0
0.9375 0.9375 0
0.9375 0.875 0
0.8125 0.8125 0
0.9375 1 0
0.875 0.9375 0
0.8125 1 0
0.75 0.9375 0
0.8125 0.9375 0
0.8125 0.875 0

CELLS 576 2240
3 0 82 89
3 82 26 81
3 89 81 28
3 81 89 82
3 26 85 84
3 85 1 83
3 84 83 25
3 83 84 85
3 28 87 86
3 87 25 104
3 86 104 6
3 104 86 87
3 25 87 84
3 87 28 81
3 84 81 26
3 81 84 87
3 0 89 88
3 89 28 93
3 88 93 27
3 93 88 89
3 28 86 94
3 86 6 90
3 94 90 39
3 90 94 86
3 27 92 91
3 92 39 136
3 91 136 5
3 136 91 92
3 39 92 94
3 92 27 93
3 94 93 28
3 93 94 92
3 1 96 102
3 96 30 95
3 102 95 31
3 95 102 96
3 30 99 98
3 99 2 97
3 98 97 29
3 97 98 99
3 31 101 100
3 101 29 117
3 100 117 7
3 117 100 101
3 29 101 98
3 101 31 95
3 98 95 30
3 95 98 101
3 1 102 83
3 102 31 106
3 83 106 25
3 106 83 102
3 31 100 107
3 100 7 103
3 107 103 43
3 103 107 100
3 25 105 104
3 105 43 149
3 104 149 6
3 149 104 105
3 43 105 107
3 105 25 106
3 107 106 31
3 106 107 105
3 2 109 115
3 109 33 108
3 115 108 34
3 108 115 109
3 33 112 111
3 112 3 110
3 111 110 32
3 110 111 112
3 34 114 113
3 114 32 125
3 113 125 8
3 125 113 114
3 32 114 111
3 114 34 108
3 111 108 33
3 108 111 114
3 2 115 97
3 115 34 119
3 97 119 29
3 119 97 115
3 34 113 120
3 113 8 116
3 120 116 46
3 116 120 113
3 29 118 117
3 118 46 161
3 117 161 7
3 161 117 118
3 46 118 120
3 118 29 119
3 120 119 34
3 119 120 118
3 3 121 110
3 121 36 127
3 110 127 32
3 127 110 121
3 36 124 123
3 124 4 122
3 123 122 35
3 122 123 124
3 32 126 125
3 126 35 129
3 125 129 8
3 129 125 126
3 35 126 123
3 126 32 127
3 123 127 36
3 127 123 126
3 8 129 173
3 129 35 128
3 173 128 49
3 128 173 129
3 35 122 133
3 122 4 130
3 133 130 37
3 130 133 122
3 49 134 132
3 134 37 131
3 132 131 9
3 131 132 134
3 37 134 133
3 134 49 128
3 133 128 35
3 128 133 134
3 5 136 142
3 136 39 135
3 142 135 41
3 135 142 136
3 39 90 138
3 90 6 137
3 138 137 38
3 137 138 90
3 41 140 139
3 140 38 156
3 139 156 11
3 156 139 140
3 38 140 138
3 140 41 135
3 138 135 39
3 135 138 140
3 5 142 141
3 142 41 146
3 141 146 40
3 146 141 142
3 41 139 147
3 139 11 143
3 147 143 52
3 143 147 139
3 40 145 144
3 145 52 186
3 144 186 10
3 186 144 145
3 52 145 147
3 145 40 146
3 147 146 41
3 146 147 145
3 6 149 154
3 149 43 148
3 154 148 44
3 148 154 149
3 43 103 151
3 103 7 150
3 151 150 42
3 150 151 103
3 44 153 152
3 153 42 168
3 152 168 12
3 168 152 153
3 42 153 151
3 153 44 148
3 151 148 43
3 148 151 153
3 6 154 137
3 154 44 158
3 137 158 38
3 158 137 154
3 44 152 159
3 152 12 155
3 159 155 56
3 155 159 152
3 38 157 156
3 157 56 199
3 156 199 11
3 199 156 157
3 56 157 159
3 157 38 158
3 159 158 44
3 158 159 157
3 7 161 166
3 161 46 160
3 166 160 47
3 160 166 161
3 46 116 163
3 116 8 162
3 163 162 45
3 162 163 116
3 47 165 164
3 165 45 181
3 164 181 13
3 181 164 165
3 45 165 163
3 165 47 160
3 163 160 46
3 160 163 165
3 7 166 150
3 166 47 170
3 150 170 42
3 170 150 166
3 47 164 171
3 164 13 167
3 171 167 59
3 167 171 164
3 42 169 168
3 169 59 211
3 168 211 12
3 211 168 169
3 59 169 171
3 169 42 170
3 171 170 47
3 170 171 169
3 8 173 179
3 173 49 172
3 179 172 50
3 172 179 173
3 49 132 175
3 132 9 174
3 175 174 48
3 174 175 132
3 50 178 177
3 178 48 176
3 177 176 14
3 176 177 178
3 48 178 175
3 178 50 172
3 175 172 49
3 172 175 178
3 8 179 162
3 179 50 183
3 162 183 45
3 183 162 179
3 50 177 184
3 177 14 180
3 184 180 62
3 180 184 177
3 45 182 181
3 182 62 223
3 181 223 13
3 223 181 182
3 62 182 184
3 182 45 183
3 184 183 50
3 183 184 182
3 10 186 192
3 186 52 185
3 192 185 54
3 185 192 186
3 52 143 188
3 143 11 187
3 188 187 51
3 187 188 143
3 54 190 189
3 190 51 206
3 189 206 16
3 206 189 190
3 51 190 188
3 190 54 185
3 188 185 52
3 185 188 190
3 10 192 191
3 192 54 196
3 191 196 53
3 196 191 192
3 54 189 197
3 189 16 193
3 197 193 66
3 193 197 189
3 53 195 194
3 195 66 236
3 194 236 15
3 236 194 195
3 66 195 197
3 195 53 196
3 197 196 54
3 196 197 195
3 11 199 204
3 199 56 198
3 204 198 57
3 198 204 199
3 56 155 201
3 155 12 200
3 201 200 55
3 200 201 155
3 57 203 202
3 203 55 218
3 202 218 17
3 218 202 203
3 55 203 201
3 203 57 198
3 201 198 56
3 198 201 203
3 11 204 187
3 204 57 208
3 187 208 51
3 208 187 204
3 57 202 209
3 202 17 205
3 209 205 70
3 205 209 202
3 51 207 206
3 207 70 250
3 206 250 16
3 250 206 207
3 70 207 209
3 207 51 208
3 209 208 57
3 208 209 207
3 12 211 216
3 211 59 210
3 216 210 60
3 210 216 211
3 59 167 213
3 167 13 212
3 213 212 58
3 212 213 167
3 60 215 214
3 215 58 231
3 214 231 18
3 231 214 215
3 58 215 213
3 215 60 210
3 213 210 59
3 210 213 215
3 12 216 200
3 216 60 220
3 200 220 55
3 220 200 216
3 60 214 221
3 214 18 217
3 221 217 74
3 217 221 214
3 55 219 218
3 219 74 263
3 218 263 17
3 263 218 219
3 74 219 221
3 219 55 220
3 221 220 60
3 220 221 219
3 13 223 229
3 223 62 222
3 229 222 63
3 222 229 223
3 62 180 225
3 180 14 224
3 225 224 61
3 224 225 180
3 63 228 227
3 228 61 226
3 227 226 19
3 226 227 228
3 61 228 225
3 228 63 222
3 225 222 62
3 222 225 228
3 13 229 212
3 229 63 233
3 212 233 58
3 233 212 229
3 63 227 234
3 227 19 230
3 234 230 78
3 230 234 227
3 58 232 231
3 232 78 276
3 231 276 18
3 276 231 232
3 78 232 234
3 232 58 233
3 234 233 63
3 233 234 232
3 15 236 235
3 236 66 240
3 235 240 65
3 240 235 236
3 66 193 238
3 193 16 237
3 238 237 64
3 237 238 193
3 65 241 239
3 241 64 244
3 239 244 20
3 244 239 241
3 64 241 238
3 241 65 240
3 238 240 66
3 240 238 241
3 20 244 243
3 244 64 242
3 243 242 68
3 242 243 244
3 64 237 247
3 237 16 245
3 247 245 67
3 245 247 237
3 68 248 246
3 248 67 259
3 246 259 21
3 259 246 248
3 67 248 247
3 248 68 242
3 247 242 64
3 242 247 248
3 16 250 255
3 250 70 249
3 255 249 72
3 249 255 250
3 70 205 252
3 205 17 251
3 252 251 69
3 251 252 205
3 72 254 253
3 254 69 272
3 253 272 22
3 272 253 254
3 69 254 252
3 254 72 249
3 252 249 70
3 249 252 254
3 16 255 245
3 255 72 261
3 245 261 67
3 261 245 255
3 72 253 257
3 253 22 256
3 257 256 71
3 256 257 253
3 67 260 259
3 260 71 258
3 259 258 21
3 258 259 260
3 71 260 257
3 260 67 261
3 257 261 72
3 261 257 260
3 17 263 268
3 263 74 262
3 268 262 76
3 262 268 263
3 74 217 265
3 217 18 264
3 265 264 73
3 264 265 217
3 76 267 266
3 267 73 286
3 266 286 23
3 286 266 267
3 73 267 265
3 267 76 262
3 265 262 74
3 262 265 267
3 17 268 251
3 268 76 274
3 251 274 69
3 274 251 268
3 76 266 270
3 266 23 269
3 270 269 75
3 269 270 266
3 69 273 272
3 273 75 271
3 272 271 22
3 271 272 273
3 75 273 270
3 273 69 274
3 270 274 76
3 274 270 273
3 18 276 282
3 276 78 275
3 282 275 80
3 275 282 276
3 78 230 278
3 230 19 277
3 278 277 77
3 277 278 230
3 80 281 280
3 281 77 279
3 280 279 24
3 279 280 281
3 77 281 278
3 281 80 275
3 278 275 78
3 275 278 281
3 18 282 264
3 282 80 288
3 264 288 73
3 288 264 282
3 80 280 284
3 280 24 283
3 284 283 79
3 283 284 280
3 73 287 286
3 287 79 285
3 286 285 23
3 285 286 287
3 79 287 284
3 287 73 288
3 284 288 80
3 288 284 287
2 0 82
2 82 26
2 26 85
2 85 1
2 27 88
2 88 0
2 5 91
2 91 27
2 1 96
2 96 30
2 30 99
2 99 2
2 2 109
2 109 33
2 33 112
2 112 3
2 3 121
2 121 36
2 36 124
2 124 4
2 4 130
2 130 37
2 37 131
2 131 9
2 40 141
2 141 5
2 10 144
2 144 40
2 9 174
2 174 48
2 48 176
2 176 14
2 53 191
2 191 10
2 15 194
2 194 53
2 14 224
2 224 61
2 61 226
2 226 19
2 65 235
2 235 15
2 20 239
2 239 65
2 68 243
2 243 20
2 21 246
2 246 68
2 22 256
2 256 71
2 71 258
2 258 21
2 23 269
2 269 75
2 75 271
2 271 22
2 19 277
2 277 77
2 77 279
2 279 24
2 24 283
2 283 79
2 79 285
2 285 23

CELL_TYPES 576
5 5 5 5 5 5 5 5 5 5 5 5 5 5 5 5 5 5 5 5 5 5 5 5 5 5 5 5 5 5 5 5 5 5 5 5 5 5 5 5 5 5 5 5 5 5 5 5 5 5 5 5 5 5 5 5 5 5 5 5 5 5 5 5 5 5 5 5 5 5 5 5 5 5 5 5 5 5 5 5 5 5 5 5 5 5 5 5 5 5 5 5 5 5 5 5 5 5 5 5 5 5 5 5 5 5 5 5 5 5 5 5 5 5 5 5 5 5 5 5 5 5 5 5 5 5 5 5 5 5 5 5 5 5 5 5 5 5 5 5 5 5 5 5 5 5 5 5 5 5 5 5 5 5 5 5 5 5 5 5 5 5 5 5 5 5 5 5 5 5 5 5 5 5 5 5 5 5 5 5 5 5 5 5 5 5 5 5 5 5 5 5 5 5 5 5 5 5 5 5 5 5 5 5 5 5 5 5 5 5 5 5 5 5 5 5 5 5 5 5 5 5 5 5 5 5 5 5 5 5 5 5 5 5 5 5 5 5 5 5 5 5 5 5 5 5 5 5 5 5 5 5 5 5 5 5 5 5 5 5 5 5 5 5 5 5 5 5 5 5 5 5 5 5 5 5 5 5 5 5 5 5 5 5 5 5 5 5 5 5 5 5 5 5 5 5 5 5 5 5 5 5 5 5 5 5 5 5 5 5 5 5 5 5 5 5 5 5 5 5 5 5 5 5 5 5 5 5 5 5 5 5 5 5 5 5 5 5 5 5 5 5 5 5 5 5 5 5 5 5 5 5 5 5 5 5 5 5 5 5 5 5 5 5 5 5 5 5 5 5 5 5 5 5 5 5 5 5 5 5 5 5 5 5 5 5 5 5 5 5 5 5 5 5 5 5 5 5 5 5 5 5 5 5 5 5 5 5 5 5 5 5 5 5 5 5 5 5 5 5 5 5 5 5 5 5 5 5 5 5 5 5 5 5 5 5 5 5 5 5 5 5 5 5 5 5 5 5 5 5 5 5 5 5 5 5 5 5 5 5 5 5 5 5 5 5 5 5 5 5 5 5 5 5 5 5 5 5 5 5 5 5 5 5 5 5 5 5 5 5 5 5 5 5 5 5 5 5 5 5 5 5 5 5 5 5 5 5 5 5 5 5 3 3 3 3 3 3 3 3 3 3 3 3 3 3 3 3 3 3 3 3 3 3 3 3 3 3 3 3 3 3 3 3 3 3 3 3 3 3 3 3 3 3 3 3 3 3 3 3 3 3 3 3 3 3 3 3 3 3 3 3 3 3 3 3 
CELL_DATA 576
Scalars  Label int 1
LOOKUP_TABLE FreeFempp_table
0
0
0
0
0
0
0
0
0
0
0
0
0
0
0
0
0
0
0
0
0
0
0
0
0
0
0
0
0
0
0
0
0
0
0
0
0
0
0
0
0
0
0
0
0
0
0
0
0
0
0
0
0
0
0
0
0
0
0
0
0
0
0
0
0
0
0
0
0
0
0
0
0
0
0
0
0
0
0
0
0
0
0
0
0
0
0
0
0
0
0
0
0
0
0
0
0
0
0
0
0
0
0
0
0
0
0
0
0
0
0
0
0
0
0
0
0
0
0
0
0
0
0
0
0
0
0
0
0
0
0
0
0
0
0
0
0
0
0
0
0
0
0
0
0
0
0
0
0
0
0
0
0
0
0
0
0
0
0
0
0
0
0
0
0
0
0
0
0
0
0
0
0
0
0
0
0
0
0
0
0
0
0
0
0
0
0
0
0
0
0
0
0
0
0
0
0
0
0
0
0
0
0
0
0
0
0
0
0
0
0
0
0
0
0
0
0
0
0
0
0
0
0
0
0
0
0
0
0
0
0
0
0
0
0
0
0
0
0
0
0
0
0
0
0
0
0
0
0
0
0
0
0
0
0
0
0
0
0
0
0
0
0
0
0
0
0
0
0
0
0
0
0
0
0
0
0
0
0
0
0
0
0
0
0
0
0
0
0
0
0
0
0
0
0
0
0
0
0
0
0
0
0
0
0
0
0
0
0
0
0
0
0
0
0
0
0
0
0
0
0
0
0
0
0
0
0
0
0
0
0
0
0
0
0
0
0
0
0
0
0
0
0
0
0
0
0
0
0
0
0
0
0
0
0
0
0
0
0
0
0
0
0
0
0
0
0
0
0
0
0
0
0
0
0
0
0
0
0
0
0
0
0
0
0
0
0
0
0
0
0
0
0
0
0
0
0
0
0
0
0
0
0
0
0
0
0
0
0
0
0
0
0
0
0
0
0
0
0
0
0
0
0
0
0
0
0
0
0
0
0
0
0
0
0
0
0
0
0
0
0
0
0
0
0
0
0
0
0
0
0
0
0
0
0
0
0
0
0
0
0
0
0
0
0
0
0
0
0
0
0
0
0
0
0
0
0
0
0
0
0
0
0
0
0
0
0
0
0
0
0
0
0
0
0
0
0
0
0
0
0
0
0
0
0
0
0
0
0
0
0
0
1
1
1
1
4
4
4
4
1
1
1
1
1
1
1
1
1
1
1
1
2
2
2
2
4
4
4
4
2
2
2
2
4
4
4
4
2
2
2
2
4
4
4
4
3
3
3
3
3
3
3
3
3
3
3
3
2
2
2
2
3
3
3
3

LOOKUP_TABLE FreeFempp_table 5
1.00000000 0.00000000 0.00000000 1.00000000
1.00000000 1.00000000 0.00000000 1.00000000
1.00000000 0.00000000 1.00000000 1.00000000
0.00000000 1.00000000 0.00000000 1.00000000
0.00000000 1.00000000 1.00000000 1.00000000

FIELD FieldData 1
Pressure 1 576 float
4.55197529e-04 1.11900351e-03 8.36644904e-04 9.05398047e-04 1.74444297e-03 2.30931840e-03 1.60296389e-03 1.95871061e-03 1.08218263e-03 1.25117297e-03 1.32616411e-03 1.33900531e-03 1.42321317e-03 1.13187288e-03 1.45290815e-03 1.23035663e-03 3.33486270e-04 8.02414957e-04 4.45032812e-04 4.58603841e-04 1.12006650e-03 1.33574510e-03 1.17052707e-03 1.20300415e-03 5.95760124e-04 9.76626878e-04 7.62901560e-04 8.97078717e-04 1.06135209e-03 6.82864978e-04 8.93145392e-04 8.69309355e-04 2.78895954e-03 3.16245947e-03 2.18389998e-03 2.74997042e-03 3.41411075e-03 3.53348651e-03 2.42987159e-03 3.12479073e-03 1.60171930e-03 1.64417038e-03 1.37999665e-03 1.65110722e-03 2.11232458e-03 2.03485694e-03 2.99579208e-03 2.35424750e-03 2.39860406e-03 1.87498925e-03 1.66061323e-03 1.92834879e-03 1.67005567e-03 1.46266760e-03 1.52163336e-03 1.44907215e-03 1.50984502e-03 1.51878584e-03 1.45527907e-03 1.41680404e-03 1.46051624e-03 1.38629484e-03 1.49088388e-03 1.62209664e-03 3.51524563e-03 3.35900090e-03 2.27677170e-03 3.01112351e-03 3.06964712e-03 2.65964796e-03 1.72193104e-03 2.41019879e-03 1.31006644e-03 1.04592147e-03 7.37959112e-04 9.26603156e-04 1.51341071e-03 1.80052547e-03 2.76860292e-03 2.04559998e-03 3.13060568e-03 1.99778378e-03 2.10124231e-03 2.40507210e-03 1.19676942e-03 7.23423669e-04 9.31425486e-04 8.92339216e-04 1.56471378e-03 1.16426079e-03 1.34278252e-03 1.25455542e-03 1.07608957e-03 1.61243370e-03 1.50178932e-03 1.41201832e-03 2.33294652e-03 1.76494441e-03 1.70783303e-03 2.00735405e-03 1.13334984e-03 4.61873162e-04 8.99743580e-04 9.29084083e-04 1.34987431e-03 1.16273726e-03 1.47969462e-03 1.39749201e-03 1.15758262e-03 1.49030250e-03 1.49028655e-03 1.31958083e-03 1.43387564e-03 1.17582269e-03 1.27032562e-03 1.33542076e-03 8.25155294e-04 3.40352155e-04 4.62834607e-04 4.67450591e-04 1.06772722e-03 6.32782409e-04 8.27104086e-04 9.18991456e-04 6.97441748e-04 1.15138246e-03 9.47442022e-04 9.19214624e-04 1.09685096e-03 1.22409884e-03 1.37554167e-03 1.10683998e-03 1.32723351e-03 1.41250598e-03 1.49315654e-03 1.38353638e-03 1.54706673e-03 1.56219944e-03 1.61939999e-03 1.51353318e-03 1.44939963e-03 1.35971245e-03 1.25905301e-03 1.44315918e-03 9.36218130e-04 1.24226010e-03 1.10699865e-03 1.28219952e-03 1.45701680e-03 1.56733021e-03 1.54440524e-03 1.63939584e-03 1.27015926e-03 1.49304152e-03 1.42359175e-03 1.61127071e-03 1.64058944e-03 1.45364529e-03 1.51418720e-03 1.37242058e-03 1.46560243e-03 1.47160329e-03 1.48174085e-03 1.48566975e-03 1.42256939e-03 1.31704367e-03 1.25804951e-03 1.35378831e-03 1.36317487e-03 1.19134353e-03 1.11387449e-03 1.20775856e-03 1.27811567e-03 1.40783936e-03 1.44935178e-03 1.39756047e-03 1.46249868e-03 1.47994678e-03 1.49286143e-03 1.51108659e-03 1.36982009e-03 1.13085925e-03 1.32354733e-03 1.31668337e-03 1.52312324e-03 1.46223791e-03 1.54310057e-03 1.56715547e-03 1.46826310e-03 1.54533295e-03 1.48132292e-03 1.47587503e-03 1.15775375e-03 9.49817651e-04 8.31725833e-04 9.96399554e-04 7.20889249e-04 6.36225508e-04 6.12489705e-04 7.25303136e-04 6.36195415e-04 6.10801566e-04 6.09526469e-04 7.50033651e-04 7.43507000e-04 8.08112090e-04 8.49529693e-04 6.59331097e-04 1.20148109e-03 9.19282495e-04 1.09490159e-03 1.06722722e-03 7.50742038e-04 7.43484474e-04 7.31859996e-04 6.15871744e-04 9.95287905e-04 7.88526144e-04 8.90997297e-04 8.65940354e-04 6.11543015e-04 9.70973982e-04 7.09918968e-04 8.60823260e-04 5.38382446e-04 4.17860603e-04 4.40409407e-04 5.60855784e-04 5.39943343e-04 8.51016724e-04 1.02821377e-03 7.80545350e-04 8.76197184e-04 1.19536417e-03 1.35328120e-03 1.16987957e-03 9.81911086e-04 6.77058648e-04 4.86865261e-04 7.10887602e-04 6.55199343e-04 6.03513035e-04 6.93283335e-04 5.36777079e-04 8.55821709e-04 1.34645600e-03 1.02863368e-03 1.03732478e-03 7.10680382e-04 6.93903596e-04 7.14933092e-04 5.74859499e-04 7.14638678e-04 5.57079911e-04 5.51091507e-04 6.26556168e-04 1.75525458e-03 1.75767881e-03 1.87127269e-03 1.60442607e-03 1.72435201e-03 1.66864996e-03 1.71800435e-03 1.60863053e-03 1.90610089e-03 1.77609641e-03 1.84125535e-03 1.66879734e-03 1.63997244e-03 1.69136049e-03 1.62107416e-03 1.81040133e-03 1.56782719e-03 1.71152840e-03 1.70616817e-03 1.88603508e-03 1.76481868e-03 1.70220784e-03 1.84898812e-03 2.00712983e-03 1.84293010e-03 1.94361410e-03 1.97631912e-03 2.09896546e-03 2.09704763e-03 2.00252142e-03 1.98642095e-03 1.82314042e-03 1.57922250e-03 1.44393335e-03 1.41187850e-03 1.43530197e-03 1.25858199e-03 1.02575193e-03 9.28224181e-04 1.04373239e-03 1.11610047e-03 8.23069829e-04 7.12535460e-04 8.38326465e-04 9.45942476e-04 1.19423075e-03 1.26518356e-03 1.19085168e-03 1.54958642e-03 1.39489037e-03 1.54340337e-03 1.58740894e-03 1.11195422e-03 7.22360390e-04 1.02088437e-03 1.03665190e-03 1.52921490e-03 1.28537812e-03 1.51415938e-03 1.61252543e-03 1.33918785e-03 1.59831019e-03 1.37633923e-03 1.34344166e-03 7.52214459e-04 5.52723126e-04 5.06040698e-04 7.07666681e-04 5.90336567e-04 6.01042062e-04 5.84736350e-04 7.27414677e-04 5.19742316e-04 5.61765453e-04 6.79442950e-04 6.69216039e-04 7.02907448e-04 6.67195884e-04 7.03645230e-04 5.58109081e-04 8.15852662e-04 6.20239007e-04 7.34675908e-04 6.30826107e-04 6.22349384e-04 6.45635242e-04 5.67498442e-04 4.76390938e-04 6.45795430e-04 4.83186013e-04 5.49110817e-04 3.78193712e-04 3.97246185e-04 5.03170420e-04 4.53914574e-04 5.44601062e-04 5.83392743e-04 8.73915036e-04 1.02633145e-03 8.58884363e-04 1.19134877e-03 1.50026532e-03 1.63402630e-03 1.51072245e-03 1.46839477e-03 1.75294781e-03 1.85645418e-03 1.79477199e-03 1.66081323e-03 1.35038991e-03 1.19443750e-03 1.33552623e-03 7.10247434e-04 1.01789704e-03 6.97560376e-04 7.04300648e-04 1.49403291e-03 1.91056391e-03 1.62363704e-03 1.59030862e-03 8.33455066e-04 1.30893092e-03 9.82506317e-04 1.00495096e-03 1.30778295e-03 8.56744940e-04 1.17068167e-03 1.16835872e-03 2.05882941e-03 1.87720964e-03 2.09411560e-03 2.03569536e-03 1.64829043e-03 1.37545844e-03 1.71977573e-03 1.66919595e-03 2.13281345e-03 1.99664664e-03 2.17609177e-03 2.14561913e-03 1.94029335e-03 2.10237387e-03 1.88720308e-03 1.92593050e-03 2.17524054e-03 1.99609064e-03 2.06679525e-03 2.08301446e-03 1.72562990e-03 1.39534613e-03 1.47258583e-03 1.47132040e-03 1.90000492e-03 1.56554289e-03 1.67781115e-03 1.66956440e-03 1.57203770e-03 1.91527593e-03 1.81215419e-03 1.79951463e-03 1.62009371e-03 1.29818660e-03 1.25037297e-03 1.22448162e-03 9.54634685e-04 5.99977851e-04 4.90721664e-04 5.99960040e-04 7.97979592e-04 3.89762106e-04 2.92447687e-04 3.49834794e-04 4.74053057e-04 8.25124444e-04 9.24078398e-04 8.73732963e-04 1.49889663e-03 1.16256636e-03 1.48371817e-03 1.60641538e-03 7.29581225e-04 2.28620163e-04 6.38428261e-04 7.21292163e-04 1.45765708e-03 1.03807752e-03 1.41351065e-03 1.48945721e-03 1.12672977e-03 1.56394870e-03 1.19520933e-03 1.10110652e-03 2.79479602e-04 3.37498583e-04 2.77352898e-04 4.13834729e-04 4.89780796e-04 8.34098901e-04 9.94768343e-04 7.97892280e-04 8.11032020e-04 1.16585440e-03 1.34388369e-03 1.11876777e-03 9.53164184e-04 6.12050935e-04 4.98704787e-04 6.47852314e-04 4.43323952e-04 3.34466895e-04 3.24788882e-04 1.81138908e-04 7.79127702e-04 1.30211317e-03 9.59704979e-04 9.77605698e-04 1.88622857e-04 5.82091277e-04 1.81810392e-04 1.43810350e-04 5.72343008e-04 9.82977508e-05 4.24968137e-04 4.13966656e-04 1.15278352e-03 1.44193706e-03 1.58182532e-03 1.44024461e-03 1.70462858e-03 1.94555067e-03 2.02356279e-03 2.00585066e-03 1.94084772e-03 2.09542038e-03 2.16285954e-03 2.12870911e-03 2.07847380e-03 1.84032740e-03 1.73849484e-03 1.81873096e-03 1.12672697e-03 1.56671950e-03 1.27129618e-03 1.30785012e-03 1.93527574e-03 2.16195011e-03 2.03270116e-03 2.06955173e-03 1.42557081e-03 1.84344058e-03 1.59888307e-03 1.65597990e-03 1.90061366e-03 1.47705502e-03 1.73599890e-03 1.69767102e-03 4.55197529e-04 1.11900351e-03 1.74444297e-03 2.30931840e-03 4.45032812e-04 3.33486270e-04 7.62901560e-04 5.95760124e-04 2.78895954e-03 3.16245947e-03 3.41411075e-03 3.53348651e-03 3.51524563e-03 3.35900090e-03 3.06964712e-03 2.65964796e-03 2.33294652e-03 1.76494441e-03 1.13334984e-03 4.61873162e-04 3.40352155e-04 4.62834607e-04 6.32782409e-04 8.27104086e-04 1.10699865e-03 9.36218130e-04 1.42359175e-03 1.27015926e-03 8.51016724e-04 1.02821377e-03 1.19536417e-03 1.35328120e-03 1.70616817e-03 1.56782719e-03 1.97631912e-03 1.84293010e-03 1.50026532e-03 1.63402630e-03 1.75294781e-03 1.85645418e-03 2.09411560e-03 2.05882941e-03 2.17609177e-03 2.13281345e-03 2.06679525e-03 2.17524054e-03 1.67781115e-03 1.90000492e-03 2.28620163e-04 6.38428261e-04 1.03807752e-03 1.41351065e-03 1.30211317e-03 9.59704979e-04 5.82091277e-04 1.81810392e-04 1.94555067e-03 2.02356279e-03 2.09542038e-03 2.16285954e-03 2.16195011e-03 2.03270116e-03 1.84344058e-03 1.59888307e-03 
POINT_DATA 289
FIELD FieldData 2
Velocity 3 289 float