# vtk DataFile Version 2.0
./pics/Error_1_1.vtk, Created by Freefem++ 
ASCII
DATASET UNSTRUCTURED_GRID
POINTS 289 float
0 0 0
0.25 0 0
0.5 0 0
0.75 0 0
1 0 0
0 0.25 0
0.25 0.25 0
0.5 0.25 0
0.75 0.25 0
1 0.25 0
0 0.5 0
0.25 0.5 0
0.5 0.5 0
0.75 0.5 0
1 0.5 0
0 0.75 0
0.25 0.75 0
0.5 0.75 0
0.75 0.75 0
1 0.75 0
0 1 0
0.25 1 0
0.5 1 0
0.75 1 0
1 1 0
0.25 0.125 0
0.125 0 0
0 0.125 0
0.125 0.125 0
0.5 0.125 0
0.375 0 0
0.375 0.125 0
0.75 0.125 0
0.625 0 0
0.625 0.125 0
0.875 0.125 0
0.875 0 0
1 0.125 0
0.25 0.375 0
0.125 0.25 0
0 0.375 0
0.125 0.375 0
0.5 0.375 0
0.375 0.25 0
0.375 0.375 0
0.75 0.375 0
0.625 0.25 0
0.625 0.375 0
1 0.375 0
0.875 0.25 0
0.875 0.375 0
0.25 0.625 0
0.125 0.5 0
0 0.625 0
0.125 0.625 0
0.5 0.625 0
0.375 0.5 0
0.375 0.625 0
0.75 0.625 0
0.625 0.5 0
0.625 0.625 0
1 0.625 0
0.875 0.5 0
0.875 0.625 0
0.125 0.875 0
0 0.875 0
0.125 0.75 0
0.25 0.875 0
0.125 1 0
0.5 0.875 0
0.375 0.75 0
0.375 1 0
0.375 0.875 0
0.75 0.875 0
0.625 0.75 0
0.625 1 0
0.625 0.875 0
1 0.875 0
0.875 0.75 0
0.875 1 0
0.875 0.875 0
0.125 0.0625 0
0.0625 0 0
0.25 0.0625 0
0.1875 0.0625 0
0.1875 0 0
0.1875 0.1875 0
0.1875 0.125 0
0 0.0625 0
0.0625 0.0625 0
0.1875 0.25 0
0 0.1875 0
0.0625 0.1875 0
0.0625 0.125 0
0.125 0.1875 0
0.375 0.0625 0
0.3125 0 0
0.5 0.0625 0
0.4375 0.0625 0
0.4375 0 0
0.4375 0.1875 0
0.4375 0.125 0
0.3125 0.0625 0
0.4375 0.25 0
0.25 0.1875 0
0.3125 0.1875 0
0.3125 0.125 0
0.375 0.1875 0
0.625 0.0625 0
0.5625 0 0
0.75 0.0625 0
0.6875 0.0625 0
0.6875 0 0
0.6875 0.1875 0
0.6875 0.125 0
0.5625 0.0625 0
0.6875 0.25 0
0.5 0.1875 0
0.5625 0.1875 0
0.5625 0.125 0
0.625 0.1875 0
0.8125 0 0
0.9375 0.0625 0
0.875 0.0625 0
0.9375 0 0
0.75 0.1875 0
0.8125 0.125 0
0.8125 0.0625 0
0.875 0.1875 0
0.8125 0.1875 0
1 0.0625 0
1 0.1875 0
0.9375 0.25 0
0.9375 0.125 0
0.9375 0.1875 0
0.125 0.3125 0
0.0625 0.25 0
0.25 0.3125 0
0.1875 0.3125 0
0.1875 0.4375 0
0.1875 0.375 0
0 0.3125 0
0.0625 0.3125 0
0.1875 0.5 0
0 0.4375 0
0.0625 0.4375 0
0.0625 0.375 0
0.125 0.4375 0
0.375 0.3125 0
0.3125 0.25 0
0.5 0.3125 0
0.4375 0.3125 0
0.4375 0.4375 0
0.4375 0.375 0
0.3125 0.3125 0
0.4375 0.5 0
0.25 0.4375 0
0.3125 0.4375 0
0.3125 0.375 0
0.375 0.4375 0
0.625 0.3125 0
0.5625 0.25 0
0.75 0.3125 0
0.6875 0.3125 0
0.6875 0.4375 0
0.6875 0.375 0
0.5625 0.3125 0
0.6875 0.5 0
0.5 0.4375 0
0.5625 0.4375 0
0.5625 0.375 0
0.625 0.4375 0
0.875 0.3125 0
0.8125 0.25 0
1 0.3125 0
0.9375 0.3125 0
1 0.4375 0
0.9375 0.4375 0
0.9375 0.375 0
0.8125 0.3125 0
0.9375 0.5 0
0.75 0.4375 0
0.8125 0.4375 0
0.8125 0.375 0
0.875 0.4375 0
0.125 0.5625 0
0.0625 0.5 0
0.25 0.5625 0
0.1875 0.5625 0
0.1875 0.6875 0
0.1875 0.625 0
0 0.5625 0
0.0625 0.5625 0
0.1875 0.75 0
0 0.6875 0
0.0625 0.6875 0
0.0625 0.625 0
0.125 0.6875 0
0.375 0.5625 0
0.3125 0.5 0
0.5 0.5625 0
0.4375 0.5625 0
0.4375 0.6875 0
0.4375 0.625 0
0.3125 0.5625 0
0.4375 0.75 0
0.25 0.6875 0
0.3125 0.6875 0
0.3125 0.625 0
0.375 0.6875 0
0.625 0.5625 0
0.5625 0.5 0
0.75 0.5625 0
0.6875 0.5625 0
0.6875 0.6875 0
0.6875 0.625 0
0.5625 0.5625 0
0.6875 0.75 0
0.5 0.6875 0
0.5625 0.6875 0
0.5625 0.625 0
0.625 0.6875 0
0.875 0.5625 0
0.8125 0.5 0
1 0.5625 0
0.9375 0.5625 0
1 0.6875 0
0.9375 0.6875 0
0.9375 0.625 0
0.8125 0.5625 0
0.9375 0.75 0
0.75 0.6875 0
0.8125 0.6875 0
0.8125 0.625 0
0.875 0.6875 0
0 0.8125 0
0.0625 0.75 0
0.1875 0.8125 0
0.125 0.8125 0
0 0.9375 0
0.0625 0.8125 0
0.0625 0.875 0
0.125 0.9375 0
0.0625 1 0
0.0625 0.9375 0
0.25 0.8125 0
0.1875 1 0
0.1875 0.875 0
0.1875 0.9375 0
0.375 0.8125 0
0.3125 0.75 0
0.5 0.8125 0
0.4375 0.8125 0
0.4375 0.9375 0
0.4375 0.875 0
0.3125 0.8125 0
0.4375 1 0
0.375 0.9375 0
0.3125 1 0
0.25 0.9375 0
0.3125 0.9375 0
0.3125 0.875 0
0.625 0.8125 0
0.5625 0.75 0
0.75 0.8125 0
0.6875 0.8125 0
0.6875 0.9375 0
0.6875 0.875 0
0.5625 0.8125 0
0.6875 1 0
0.625 0.9375 0
0.5625 1 0
0.5 0.9375 0
0.5625 0.9375 0
0.5625 0.875 0
0.875 0.8125 0
0.8125 0.75 0
1 0.8125 0
0.9375 0.8125 0
1 0.9375 0
0.9375 0.9375 0
0.9375 0.875 0
0.8125 0.8125 0
0.9375 1 0
0.875 0.9375 0
0.8125 1 0
0.75 0.9375 0
0.8125 0.9375 0
0.8125 0.875 0

CELLS 576 2240
3 0 82 89
3 82 26 81
3 89 81 28
3 81 89 82
3 26 85 84
3 85 1 83
3 84 83 25
3 83 84 85
3 28 87 86
3 87 25 104
3 86 104 6
3 104 86 87
3 25 87 84
3 87 28 81
3 84 81 26
3 81 84 87
3 0 89 88
3 89 28 93
3 88 93 27
3 93 88 89
3 28 86 94
3 86 6 90
3 94 90 39
3 90 94 86
3 27 92 91
3 92 39 136
3 91 136 5
3 136 91 92
3 39 92 94
3 92 27 93
3 94 93 28
3 93 94 92
3 1 96 102
3 96 30 95
3 102 95 31
3 95 102 96
3 30 99 98
3 99 2 97
3 98 97 29
3 97 98 99
3 31 101 100
3 101 29 117
3 100 117 7
3 117 100 101
3 29 101 98
3 101 31 95
3 98 95 30
3 95 98 101
3 1 102 83
3 102 31 106
3 83 106 25
3 106 83 102
3 31 100 107
3 100 7 103
3 107 103 43
3 103 107 100
3 25 105 104
3 105 43 149
3 104 149 6
3 149 104 105
3 43 105 107
3 105 25 106
3 107 106 31
3 106 107 105
3 2 109 115
3 109 33 108
3 115 108 34
3 108 115 109
3 33 112 111
3 112 3 110
3 111 110 32
3 110 111 112
3 34 114 113
3 114 32 125
3 113 125 8
3 125 113 114
3 32 114 111
3 114 34 108
3 111 108 33
3 108 111 114
3 2 115 97
3 115 34 119
3 97 119 29
3 119 97 115
3 34 113 120
3 113 8 116
3 120 116 46
3 116 120 113
3 29 118 117
3 118 46 161
3 117 161 7
3 161 117 118
3 46 118 120
3 118 29 119
3 120 119 34
3 119 120 118
3 3 121 110
3 121 36 127
3 110 127 32
3 127 110 121
3 36 124 123
3 124 4 122
3 123 122 35
3 122 123 124
3 32 126 125
3 126 35 129
3 125 129 8
3 129 125 126
3 35 126 123
3 126 32 127
3 123 127 36
3 127 123 126
3 8 129 173
3 129 35 128
3 173 128 49
3 128 173 129
3 35 122 133
3 122 4 130
3 133 130 37
3 130 133 122
3 49 134 132
3 134 37 131
3 132 131 9
3 131 132 134
3 37 134 133
3 134 49 128
3 133 128 35
3 128 133 134
3 5 136 142
3 136 39 135
3 142 135 41
3 135 142 136
3 39 90 138
3 90 6 137
3 138 137 38
3 137 138 90
3 41 140 139
3 140 38 156
3 139 156 11
3 156 139 140
3 38 140 138
3 140 41 135
3 138 135 39
3 135 138 140
3 5 142 141
3 142 41 146
3 141 146 40
3 146 141 142
3 41 139 147
3 139 11 143
3 147 143 52
3 143 147 139
3 40 145 144
3 145 52 186
3 144 186 10
3 186 144 145
3 52 145 147
3 145 40 146
3 147 146 41
3 146 147 145
3 6 149 154
3 149 43 148
3 154 148 44
3 148 154 149
3 43 103 151
3 103 7 150
3 151 150 42
3 150 151 103
3 44 153 152
3 153 42 168
3 152 168 12
3 168 152 153
3 42 153 151
3 153 44 148
3 151 148 43
3 148 151 153
3 6 154 137
3 154 44 158
3 137 158 38
3 158 137 154
3 44 152 159
3 152 12 155
3 159 155 56
3 155 159 152
3 38 157 156
3 157 56 199
3 156 199 11
3 199 156 157
3 56 157 159
3 157 38 158
3 159 158 44
3 158 159 157
3 7 161 166
3 161 46 160
3 166 160 47
3 160 166 161
3 46 116 163
3 116 8 162
3 163 162 45
3 162 163 116
3 47 165 164
3 165 45 181
3 164 181 13
3 181 164 165
3 45 165 163
3 165 47 160
3 163 160 46
3 160 163 165
3 7 166 150
3 166 47 170
3 150 170 42
3 170 150 166
3 47 164 171
3 164 13 167
3 171 167 59
3 167 171 164
3 42 169 168
3 169 59 211
3 168 211 12
3 211 168 169
3 59 169 171
3 169 42 170
3 171 170 47
3 170 171 169
3 8 173 179
3 173 49 172
3 179 172 50
3 172 179 173
3 49 132 175
3 132 9 174
3 175 174 48
3 174 175 132
3 50 178 177
3 178 48 176
3 177 176 14
3 176 177 178
3 48 178 175
3 178 50 172
3 175 172 49
3 172 175 178
3 8 179 162
3 179 50 183
3 162 183 45
3 183 162 179
3 50 177 184
3 177 14 180
3 184 180 62
3 180 184 177
3 45 182 181
3 182 62 223
3 181 223 13
3 223 181 182
3 62 182 184
3 182 45 183
3 184 183 50
3 183 184 182
3 10 186 192
3 186 52 185
3 192 185 54
3 185 192 186
3 52 143 188
3 143 11 187
3 188 187 51
3 187 188 143
3 54 190 189
3 190 51 206
3 189 206 16
3 206 189 190
3 51 190 188
3 190 54 185
3 188 185 52
3 185 188 190
3 10 192 191
3 192 54 196
3 191 196 53
3 196 191 192
3 54 189 197
3 189 16 193
3 197 193 66
3 193 197 189
3 53 195 194
3 195 66 236
3 194 236 15
3 236 194 195
3 66 195 197
3 195 53 196
3 197 196 54
3 196 197 195
3 11 199 204
3 199 56 198
3 204 198 57
3 198 204 199
3 56 155 201
3 155 12 200
3 201 200 55
3 200 201 155
3 57 203 202
3 203 55 218
3 202 218 17
3 218 202 203
3 55 203 201
3 203 57 198
3 201 198 56
3 198 201 203
3 11 204 187
3 204 57 208
3 187 208 51
3 208 187 204
3 57 202 209
3 202 17 205
3 209 205 70
3 205 209 202
3 51 207 206
3 207 70 250
3 206 250 16
3 250 206 207
3 70 207 209
3 207 51 208
3 209 208 57
3 208 209 207
3 12 211 216
3 211 59 210
3 216 210 60
3 210 216 211
3 59 167 213
3 167 13 212
3 213 212 58
3 212 213 167
3 60 215 214
3 215 58 231
3 214 231 18
3 231 214 215
3 58 215 213
3 215 60 210
3 213 210 59
3 210 213 215
3 12 216 200
3 216 60 220
3 200 220 55
3 220 200 216
3 60 214 221
3 214 18 217
3 221 217 74
3 217 221 214
3 55 219 218
3 219 74 263
3 218 263 17
3 263 218 219
3 74 219 221
3 219 55 220
3 221 220 60
3 220 221 219
3 13 223 229
3 223 62 222
3 229 222 63
3 222 229 223
3 62 180 225
3 180 14 224
3 225 224 61
3 224 225 180
3 63 228 227
3 228 61 226
3 227 226 19
3 226 227 228
3 61 228 225
3 228 63 222
3 225 222 62
3 222 225 228
3 13 229 212
3 229 63 233
3 212 233 58
3 233 212 229
3 63 227 234
3 227 19 230
3 234 230 78
3 230 234 227
3 58 232 231
3 232 78 276
3 231 276 18
3 276 231 232
3 78 232 234
3 232 58 233
3 234 233 63
3 233 234 232
3 15 236 235
3 236 66 240
3 235 240 65
3 240 235 236
3 66 193 238
3 193 16 237
3 238 237 64
3 237 238 193
3 65 241 239
3 241 64 244
3 239 244 20
3 244 239 241
3 64 241 238
3 241 65 240
3 238 240 66
3 240 238 241
3 20 244 243
3 244 64 242
3 243 242 68
3 242 243 244
3 64 237 247
3 237 16 245
3 247 245 67
3 245 247 237
3 68 248 246
3 248 67 259
3 246 259 21
3 259 246 248
3 67 248 247
3 248 68 242
3 247 242 64
3 242 247 248
3 16 250 255
3 250 70 249
3 255 249 72
3 249 255 250
3 70 205 252
3 205 17 251
3 252 251 69
3 251 252 205
3 72 254 253
3 254 69 272
3 253 272 22
3 272 253 254
3 69 254 252
3 254 72 249
3 252 249 70
3 249 252 254
3 16 255 245
3 255 72 261
3 245 261 67
3 261 245 255
3 72 253 257
3 253 22 256
3 257 256 71
3 256 257 253
3 67 260 259
3 260 71 258
3 259 258 21
3 258 259 260
3 71 260 257
3 260 67 261
3 257 261 72
3 261 257 260
3 17 263 268
3 263 74 262
3 268 262 76
3 262 268 263
3 74 217 265
3 217 18 264
3 265 264 73
3 264 265 217
3 76 267 266
3 267 73 286
3 266 286 23
3 286 266 267
3 73 267 265
3 267 76 262
3 265 262 74
3 262 265 267
3 17 268 251
3 268 76 274
3 251 274 69
3 274 251 268
3 76 266 270
3 266 23 269
3 270 269 75
3 269 270 266
3 69 273 272
3 273 75 271
3 272 271 22
3 271 272 273
3 75 273 270
3 273 69 274
3 270 274 76
3 274 270 273
3 18 276 282
3 276 78 275
3 282 275 80
3 275 282 276
3 78 230 278
3 230 19 277
3 278 277 77
3 277 278 230
3 80 281 280
3 281 77 279
3 280 279 24
3 279 280 281
3 77 281 278
3 281 80 275
3 278 275 78
3 275 278 281
3 18 282 264
3 282 80 288
3 264 288 73
3 288 264 282
3 80 280 284
3 280 24 283
3 284 283 79
3 283 284 280
3 73 287 286
3 287 79 285
3 286 285 23
3 285 286 287
3 79 287 284
3 287 73 288
3 284 288 80
3 288 284 287
2 0 82
2 82 26
2 26 85
2 85 1
2 27 88
2 88 0
2 5 91
2 91 27
2 1 96
2 96 30
2 30 99
2 99 2
2 2 109
2 109 33
2 33 112
2 112 3
2 3 121
2 121 36
2 36 124
2 124 4
2 4 130
2 130 37
2 37 131
2 131 9
2 40 141
2 141 5
2 10 144
2 144 40
2 9 174
2 174 48
2 48 176
2 176 14
2 53 191
2 191 10
2 15 194
2 194 53
2 14 224
2 224 61
2 61 226
2 226 19
2 65 235
2 235 15
2 20 239
2 239 65
2 68 243
2 243 20
2 21 246
2 246 68
2 22 256
2 256 71
2 71 258
2 258 21
2 23 269
2 269 75
2 75 271
2 271 22
2 19 277
2 277 77
2 77 279
2 279 24
2 24 283
2 283 79
2 79 285
2 285 23

CELL_TYPES 576
5 5 5 5 5 5 5 5 5 5 5 5 5 5 5 5 5 5 5 5 5 5 5 5 5 5 5 5 5 5 5 5 5 5 5 5 5 5 5 5 5 5 5 5 5 5 5 5 5 5 5 5 5 5 5 5 5 5 5 5 5 5 5 5 5 5 5 5 5 5 5 5 5 5 5 5 5 5 5 5 5 5 5 5 5 5 5 5 5 5 5 5 5 5 5 5 5 5 5 5 5 5 5 5 5 5 5 5 5 5 5 5 5 5 5 5 5 5 5 5 5 5 5 5 5 5 5 5 5 5 5 5 5 5 5 5 5 5 5 5 5 5 5 5 5 5 5 5 5 5 5 5 5 5 5 5 5 5 5 5 5 5 5 5 5 5 5 5 5 5 5 5 5 5 5 5 5 5 5 5 5 5 5 5 5 5 5 5 5 5 5 5 5 5 5 5 5 5 5 5 5 5 5 5 5 5 5 5 5 5 5 5 5 5 5 5 5 5 5 5 5 5 5 5 5 5 5 5 5 5 5 5 5 5 5 5 5 5 5 5 5 5 5 5 5 5 5 5 5 5 5 5 5 5 5 5 5 5 5 5 5 5 5 5 5 5 5 5 5 5 5 5 5 5 5 5 5 5 5 5 5 5 5 5 5 5 5 5 5 5 5 5 5 5 5 5 5 5 5 5 5 5 5 5 5 5 5 5 5 5 5 5 5 5 5 5 5 5 5 5 5 5 5 5 5 5 5 5 5 5 5 5 5 5 5 5 5 5 5 5 5 5 5 5 5 5 5 5 5 5 5 5 5 5 5 5 5 5 5 5 5 5 5 5 5 5 5 5 5 5 5 5 5 5 5 5 5 5 5 5 5 5 5 5 5 5 5 5 5 5 5 5 5 5 5 5 5 5 5 5 5 5 5 5 5 5 5 5 5 5 5 5 5 5 5 5 5 5 5 5 5 5 5 5 5 5 5 5 5 5 5 5 5 5 5 5 5 5 5 5 5 5 5 5 5 5 5 5 5 5 5 5 5 5 5 5 5 5 5 5 5 5 5 5 5 5 5 5 5 5 5 5 5 5 5 5 5 5 5 5 5 5 5 5 5 5 5 5 5 5 5 5 5 5 5 5 5 5 5 5 5 5 5 5 5 5 5 5 5 5 5 5 3 3 3 3 3 3 3 3 3 3 3 3 3 3 3 3 3 3 3 3 3 3 3 3 3 3 3 3 3 3 3 3 3 3 3 3 3 3 3 3 3 3 3 3 3 3 3 3 3 3 3 3 3 3 3 3 3 3 3 3 3 3 3 3 
CELL_DATA 576
Scalars  Label int 1
LOOKUP_TABLE FreeFempp_table
0
0
0
0
0
0
0
0
0
0
0
0
0
0
0
0
0
0
0
0
0
0
0
0
0
0
0
0
0
0
0
0
0
0
0
0
0
0
0
0
0
0
0
0
0
0
0
0
0
0
0
0
0
0
0
0
0
0
0
0
0
0
0
0
0
0
0
0
0
0
0
0
0
0
0
0
0
0
0
0
0
0
0
0
0
0
0
0
0
0
0
0
0
0
0
0
0
0
0
0
0
0
0
0
0
0
0
0
0
0
0
0
0
0
0
0
0
0
0
0
0
0
0
0
0
0
0
0
0
0
0
0
0
0
0
0
0
0
0
0
0
0
0
0
0
0
0
0
0
0
0
0
0
0
0
0
0
0
0
0
0
0
0
0
0
0
0
0
0
0
0
0
0
0
0
0
0
0
0
0
0
0
0
0
0
0
0
0
0
0
0
0
0
0
0
0
0
0
0
0
0
0
0
0
0
0
0
0
0
0
0
0
0
0
0
0
0
0
0
0
0
0
0
0
0
0
0
0
0
0
0
0
0
0
0
0
0
0
0
0
0
0
0
0
0
0
0
0
0
0
0
0
0
0
0
0
0
0
0
0
0
0
0
0
0
0
0
0
0
0
0
0
0
0
0
0
0
0
0
0
0
0
0
0
0
0
0
0
0
0
0
0
0
0
0
0
0
0
0
0
0
0
0
0
0
0
0
0
0
0
0
0
0
0
0
0
0
0
0
0
0
0
0
0
0
0
0
0
0
0
0
0
0
0
0
0
0
0
0
0
0
0
0
0
0
0
0
0
0
0
0
0
0
0
0
0
0
0
0
0
0
0
0
0
0
0
0
0
0
0
0
0
0
0
0
0
0
0
0
0
0
0
0
0
0
0
0
0
0
0
0
0
0
0
0
0
0
0
0
0
0
0
0
0
0
0
0
0
0
0
0
0
0
0
0
0
0
0
0
0
0
0
0
0
0
0
0
0
0
0
0
0
0
0
0
0
0
0
0
0
0
0
0
0
0
0
0
0
0
0
0
0
0
0
0
0
0
0
0
0
0
0
0
0
0
0
0
0
0
0
0
0
0
0
0
0
0
0
0
0
0
0
0
0
0
0
0
0
0
0
0
0
0
0
0
0
0
0
0
0
0
0
0
0
0
0
0
0
0
0
0
0
1
1
1
1
4
4
4
4
1
1
1
1
1
1
1
1
1
1
1
1
2
2
2
2
4
4
4
4
2
2
2
2
4
4
4
4
2
2
2
2
4
4
4
4
3
3
3
3
3
3
3
3
3
3
3
3
2
2
2
2
3
3
3
3

LOOKUP_TABLE FreeFempp_table 5
1.00000000 0.00000000 0.00000000 1.00000000
1.00000000 1.00000000 0.00000000 1.00000000
1.00000000 0.00000000 1.00000000 1.00000000
0.00000000 1.00000000 0.00000000 1.00000000
0.00000000 1.00000000 1.00000000 1.00000000

FIELD FieldData 1
Pressure 1 576 float
3.81128193e-04 8.70381540e-04 6.36838668e-04 5.65187773e-04 1.32307550e-03 1.72684714e-03 9.49346984e-04 1.22605136e-03 8.64671136e-04 1.02172210e-03 1.12151064e-03 9.87241161e-04 9.15967859e-04 7.23942532e-04 9.15803830e-04 8.03847448e-04 1.52524866e-04 4.97461879e-04 2.38518653e-04 5.04317984e-04 8.23748996e-04 1.08623365e-03 9.44078260e-04 9.85820196e-04 3.33165954e-04 7.55400979e-04 4.77779337e-04 7.49903324e-04 8.19104025e-04 6.13703742e-04 6.96804258e-04 6.19461818e-04 2.06682994e-03 2.33008945e-03 1.14010100e-03 1.69207703e-03 2.50658812e-03 2.58964766e-03 1.17323687e-03 1.89671782e-03 1.21442461e-03 1.17794948e-03 1.16055680e-03 1.18408562e-03 1.25280290e-03 1.24189572e-03 1.83007598e-03 1.17726217e-03 1.48810120e-03 1.18011003e-03 1.06999301e-03 1.06310518e-03 1.20876404e-03 1.16245821e-03 1.21991395e-03 1.22894871e-03 1.10840064e-03 1.22625905e-03 1.18120702e-03 1.20935414e-03 1.24550995e-03 1.13500434e-03 1.19997561e-03 1.18318270e-03 2.57626292e-03 2.46740272e-03 1.04557944e-03 1.80795777e-03 2.26936745e-03 2.01230054e-03 8.56632949e-04 1.42718409e-03 8.59670050e-04 8.20450718e-04 7.67174643e-04 8.38726119e-04 8.44274531e-04 9.82551253e-04 1.65470527e-03 9.33904783e-04 1.88933092e-03 1.12109026e-03 1.21218630e-03 1.12845469e-03 1.00139598e-03 7.94924621e-04 9.55790456e-04 7.95337313e-04 1.13761565e-03 1.05309160e-03 1.11188833e-03 1.04307104e-03 9.18366190e-04 1.09197560e-03 9.75611329e-04 1.09017687e-03 1.69427204e-03 1.31111941e-03 9.05484776e-04 1.24390109e-03 8.63073044e-04 3.76956130e-04 6.24683045e-04 5.70643810e-04 1.03094417e-03 8.81045533e-04 1.17978640e-03 1.02797651e-03 7.36796530e-04 9.49441572e-04 9.23218671e-04 7.84149452e-04 1.07506569e-03 8.33904080e-04 9.12262010e-04 1.08322210e-03 5.05844364e-04 1.48399500e-04 2.35518615e-04 4.96305584e-04 7.34723697e-04 3.43278574e-04 5.31812839e-04 8.18610482e-04 5.97433595e-04 9.21007944e-04 6.91486814e-04 6.26691326e-04 9.21497704e-04 9.52672213e-04 1.07791135e-03 8.87539587e-04 1.09710870e-03 1.20886078e-03 1.28425937e-03 1.17726962e-03 1.28795055e-03 1.34704250e-03 1.39659306e-03 1.32276118e-03 1.25641329e-03 1.16192072e-03 1.05797953e-03 1.19823252e-03 6.21547573e-04 1.01233146e-03 7.60859577e-04 1.08407170e-03 1.25456613e-03 1.37569592e-03 1.33487652e-03 1.36525813e-03 8.93293647e-04 1.23257039e-03 1.01704348e-03 1.37573574e-03 1.29660743e-03 1.23597961e-03 1.19301584e-03 1.12783595e-03 1.26961619e-03 1.27618609e-03 1.29321718e-03 1.26069458e-03 1.22863322e-03 1.12906715e-03 1.08499639e-03 1.13360002e-03 1.18812022e-03 1.02905766e-03 9.61878162e-04 1.03957357e-03 1.09259959e-03 1.21279503e-03 1.22290198e-03 1.21487433e-03 1.24540203e-03 1.28172338e-03 1.29657134e-03 1.31672982e-03 1.18947634e-03 9.75146191e-04 1.15330564e-03 1.14872237e-03 1.33411074e-03 1.28256192e-03 1.35776622e-03 1.37061137e-03 1.28683611e-03 1.35048351e-03 1.29674934e-03 1.28899002e-03 9.81477089e-04 8.54819838e-04 7.84004456e-04 1.00185396e-03 7.21166143e-04 5.92732977e-04 4.83491109e-04 7.64922705e-04 5.59005421e-04 4.97048255e-04 5.00223425e-04 6.40566868e-04 6.92419882e-04 8.30514473e-04 8.97794846e-04 6.40945043e-04 1.07147335e-03 9.42058861e-04 1.02204341e-03 9.08759714e-04 7.55923975e-04 6.41575200e-04 6.75310439e-04 4.93025349e-04 9.64335050e-04 8.00184265e-04 8.98782164e-04 7.54548179e-04 6.23536005e-04 8.32088059e-04 7.06699328e-04 8.74629244e-04 3.66532709e-04 2.39684479e-04 3.84287094e-04 5.63969545e-04 5.01756964e-04 8.22200906e-04 9.30716807e-04 7.88874051e-04 8.08502198e-04 1.05966965e-03 1.18268991e-03 1.08290731e-03 9.20426042e-04 6.26608380e-04 5.30931808e-04 6.60206832e-04 6.44261774e-04 5.51891571e-04 6.07171678e-04 4.31965425e-04 7.74501706e-04 1.23823225e-03 9.20269405e-04 9.48950590e-04 6.24701381e-04 6.46326633e-04 6.38190482e-04 4.83142183e-04 6.84999570e-04 4.65177902e-04 5.37800835e-04 5.79230196e-04 1.50221272e-03 1.38794759e-03 1.46826042e-03 1.32541545e-03 1.42965396e-03 1.43258856e-03 1.45573798e-03 1.41464453e-03 1.53753697e-03 1.47480529e-03 1.59072725e-03 1.44003716e-03 1.43857137e-03 1.45471387e-03 1.40195875e-03 1.48228719e-03 1.13094365e-03 1.40563888e-03 1.23552489e-03 1.61552860e-03 1.48844044e-03 1.33591576e-03 1.44895911e-03 1.73788588e-03 1.34344515e-03 1.48274843e-03 1.52339716e-03 1.94155308e-03 1.79587735e-03 1.72488205e-03 1.55315560e-03 1.47208432e-03 1.37697544e-03 1.26356725e-03 1.22713787e-03 1.26253429e-03 1.09703036e-03 8.84069304e-04 7.96226552e-04 9.05085995e-04 9.58232791e-04 6.98916207e-04 5.92648459e-04 7.59090821e-04 8.35371553e-04 1.04401703e-03 1.10468827e-03 1.03340379e-03 1.36729714e-03 1.22886803e-03 1.36205519e-03 1.36985653e-03 9.71624570e-04 6.77360513e-04 8.87938426e-04 8.71931843e-04 1.33640610e-03 1.11549732e-03 1.24752615e-03 1.34508265e-03 1.11890736e-03 1.35234173e-03 1.17822120e-03 1.18061574e-03 6.70914480e-04 5.35305473e-04 4.42965829e-04 7.19421601e-04 4.75840992e-04 4.97334404e-04 4.88798309e-04 6.35790871e-04 4.24777973e-04 5.23710391e-04 6.57254714e-04 6.03533117e-04 6.23111031e-04 5.72600635e-04 5.97634295e-04 4.53040615e-04 8.25963274e-04 6.33197662e-04 7.46648118e-04 5.82137320e-04 5.40751556e-04 6.21567480e-04 5.02147537e-04 3.91197420e-04 6.61809812e-04 4.48626728e-04 5.72639343e-04 3.93544731e-04 3.08659946e-04 4.89288708e-04 3.54476215e-04 5.42537950e-04 5.44326787e-04 8.25762458e-04 9.58883262e-04 7.89742859e-04 1.08036061e-03 1.29459030e-03 1.39384321e-03 1.38188654e-03 1.31082989e-03 1.47930405e-03 1.54989283e-03 1.62781682e-03 1.51218288e-03 1.18477072e-03 1.05764566e-03 1.20140717e-03 6.45343796e-04 9.25673579e-04 6.47299050e-04 6.83747756e-04 1.30026694e-03 1.72760140e-03 1.40283699e-03 1.40745693e-03 7.82422489e-04 1.16953382e-03 9.10340110e-04 9.43805964e-04 1.19722565e-03 8.17297143e-04 1.08309602e-03 1.05271011e-03 1.72713469e-03 1.47553138e-03 1.67101878e-03 1.95086887e-03 1.27947668e-03 1.14161079e-03 1.42164447e-03 1.47760496e-03 1.68235926e-03 1.64800300e-03 1.78636995e-03 1.90856983e-03 1.59514567e-03 1.88797689e-03 1.70463603e-03 1.57777150e-03 1.78413186e-03 1.62999379e-03 1.63501746e-03 1.86756812e-03 1.39993255e-03 1.15126709e-03 1.13901577e-03 1.33103144e-03 1.53261865e-03 1.24112586e-03 1.43122196e-03 1.61885470e-03 1.45185157e-03 1.74367265e-03 1.52256934e-03 1.46579905e-03 1.39432168e-03 1.04994606e-03 9.67105851e-04 1.04166579e-03 7.74668471e-04 4.77874273e-04 3.55612254e-04 5.91690594e-04 5.59526845e-04 2.34773717e-04 2.49310338e-04 4.13052447e-04 5.03765012e-04 6.88938599e-04 7.93768442e-04 6.66918466e-04 1.16548734e-03 9.59533616e-04 1.14782678e-03 1.37776858e-03 5.68834832e-04 2.96410493e-04 4.26494982e-04 5.65590337e-04 1.08661340e-03 6.93097827e-04 1.05198671e-03 1.36211747e-03 9.29351198e-04 1.31567917e-03 8.79359082e-04 8.59595486e-04 2.96135870e-04 2.58219021e-04 2.96123006e-04 3.52740521e-04 4.82074247e-04 7.86043180e-04 9.09982482e-04 7.50321604e-04 7.47322338e-04 1.03649392e-03 1.24084018e-03 9.91123263e-04 8.73104320e-04 5.75424463e-04 4.56765585e-04 6.13829994e-04 4.80523013e-04 2.89039424e-04 3.86655272e-04 1.98166439e-04 7.05091632e-04 1.11140287e-03 8.51729535e-04 9.21559462e-04 2.88615411e-04 5.61350840e-04 2.51537625e-04 2.49668054e-04 5.67507290e-04 1.81111711e-04 4.31102817e-04 3.94022005e-04 1.06233568e-03 1.30036613e-03 1.39310595e-03 1.27490412e-03 1.49035640e-03 1.60459580e-03 1.64290681e-03 1.81033718e-03 1.63048599e-03 1.66878442e-03 1.77756813e-03 1.90479006e-03 1.87389681e-03 1.56372052e-03 1.49118609e-03 1.55999104e-03 1.02985441e-03 1.36768993e-03 1.14001858e-03 1.17318262e-03 1.61632500e-03 1.77619339e-03 1.61776028e-03 1.85837736e-03 1.24121446e-03 1.49960176e-03 1.33013085e-03 1.51285401e-03 1.72580557e-03 1.28728512e-03 1.48928328e-03 1.44712557e-03 3.81128193e-04 8.70381540e-04 1.32307550e-03 1.72684714e-03 2.38518653e-04 1.52524866e-04 4.77779337e-04 3.33165954e-04 2.06682994e-03 2.33008945e-03 2.50658812e-03 2.58964766e-03 2.57626292e-03 2.46740272e-03 2.26936745e-03 2.01230054e-03 1.69427204e-03 1.31111941e-03 8.63073044e-04 3.76956130e-04 1.48399500e-04 2.35518615e-04 3.43278574e-04 5.31812839e-04 7.60859577e-04 6.21547573e-04 1.01704348e-03 8.93293647e-04 8.22200906e-04 9.30716807e-04 1.05966965e-03 1.18268991e-03 1.23552489e-03 1.13094365e-03 1.52339716e-03 1.34344515e-03 1.29459030e-03 1.39384321e-03 1.47930405e-03 1.54989283e-03 1.67101878e-03 1.72713469e-03 1.78636995e-03 1.68235926e-03 1.63501746e-03 1.78413186e-03 1.43122196e-03 1.53261865e-03 2.96410493e-04 4.26494982e-04 6.93097827e-04 1.05198671e-03 1.11140287e-03 8.51729535e-04 5.61350840e-04 2.51537625e-04 1.60459580e-03 1.64290681e-03 1.66878442e-03 1.77756813e-03 1.77619339e-03 1.61776028e-03 1.49960176e-03 1.33013085e-03 
POINT_DATA 289
FIELD FieldData 2
Velocity 3 289 float