# vtk DataFile Version 2.0
./pics/Error_1_8.vtk, Created by Freefem++ 
ASCII
DATASET UNSTRUCTURED_GRID
POINTS 289 float
0 0 0
0.25 0 0
0.5 0 0
0.75 0 0
1 0 0
0 0.25 0
0.25 0.25 0
0.5 0.25 0
0.75 0.25 0
1 0.25 0
0 0.5 0
0.25 0.5 0
0.5 0.5 0
0.75 0.5 0
1 0.5 0
0 0.75 0
0.25 0.75 0
0.5 0.75 0
0.75 0.75 0
1 0.75 0
0 1 0
0.25 1 0
0.5 1 0
0.75 1 0
1 1 0
0.25 0.125 0
0.125 0 0
0 0.125 0
0.125 0.125 0
0.5 0.125 0
0.375 0 0
0.375 0.125 0
0.75 0.125 0
0.625 0 0
0.625 0.125 0
0.875 0.125 0
0.875 0 0
1 0.125 0
0.25 0.375 0
0.125 0.25 0
0 0.375 0
0.125 0.375 0
0.5 0.375 0
0.375 0.25 0
0.375 0.375 0
0.75 0.375 0
0.625 0.25 0
0.625 0.375 0
1 0.375 0
0.875 0.25 0
0.875 0.375 0
0.25 0.625 0
0.125 0.5 0
0 0.625 0
0.125 0.625 0
0.5 0.625 0
0.375 0.5 0
0.375 0.625 0
0.75 0.625 0
0.625 0.5 0
0.625 0.625 0
1 0.625 0
0.875 0.5 0
0.875 0.625 0
0.125 0.875 0
0 0.875 0
0.125 0.75 0
0.25 0.875 0
0.125 1 0
0.5 0.875 0
0.375 0.75 0
0.375 1 0
0.375 0.875 0
0.75 0.875 0
0.625 0.75 0
0.625 1 0
0.625 0.875 0
1 0.875 0
0.875 0.75 0
0.875 1 0
0.875 0.875 0
0.125 0.0625 0
0.0625 0 0
0.25 0.0625 0
0.1875 0.0625 0
0.1875 0 0
0.1875 0.1875 0
0.1875 0.125 0
0 0.0625 0
0.0625 0.0625 0
0.1875 0.25 0
0 0.1875 0
0.0625 0.1875 0
0.0625 0.125 0
0.125 0.1875 0
0.375 0.0625 0
0.3125 0 0
0.5 0.0625 0
0.4375 0.0625 0
0.4375 0 0
0.4375 0.1875 0
0.4375 0.125 0
0.3125 0.0625 0
0.4375 0.25 0
0.25 0.1875 0
0.3125 0.1875 0
0.3125 0.125 0
0.375 0.1875 0
0.625 0.0625 0
0.5625 0 0
0.75 0.0625 0
0.6875 0.0625 0
0.6875 0 0
0.6875 0.1875 0
0.6875 0.125 0
0.5625 0.0625 0
0.6875 0.25 0
0.5 0.1875 0
0.5625 0.1875 0
0.5625 0.125 0
0.625 0.1875 0
0.8125 0 0
0.9375 0.0625 0
0.875 0.0625 0
0.9375 0 0
0.75 0.1875 0
0.8125 0.125 0
0.8125 0.0625 0
0.875 0.1875 0
0.8125 0.1875 0
1 0.0625 0
1 0.1875 0
0.9375 0.25 0
0.9375 0.125 0
0.9375 0.1875 0
0.125 0.3125 0
0.0625 0.25 0
0.25 0.3125 0
0.1875 0.3125 0
0.1875 0.4375 0
0.1875 0.375 0
0 0.3125 0
0.0625 0.3125 0
0.1875 0.5 0
0 0.4375 0
0.0625 0.4375 0
0.0625 0.375 0
0.125 0.4375 0
0.375 0.3125 0
0.3125 0.25 0
0.5 0.3125 0
0.4375 0.3125 0
0.4375 0.4375 0
0.4375 0.375 0
0.3125 0.3125 0
0.4375 0.5 0
0.25 0.4375 0
0.3125 0.4375 0
0.3125 0.375 0
0.375 0.4375 0
0.625 0.3125 0
0.5625 0.25 0
0.75 0.3125 0
0.6875 0.3125 0
0.6875 0.4375 0
0.6875 0.375 0
0.5625 0.3125 0
0.6875 0.5 0
0.5 0.4375 0
0.5625 0.4375 0
0.5625 0.375 0
0.625 0.4375 0
0.875 0.3125 0
0.8125 0.25 0
1 0.3125 0
0.9375 0.3125 0
1 0.4375 0
0.9375 0.4375 0
0.9375 0.375 0
0.8125 0.3125 0
0.9375 0.5 0
0.75 0.4375 0
0.8125 0.4375 0
0.8125 0.375 0
0.875 0.4375 0
0.125 0.5625 0
0.0625 0.5 0
0.25 0.5625 0
0.1875 0.5625 0
0.1875 0.6875 0
0.1875 0.625 0
0 0.5625 0
0.0625 0.5625 0
0.1875 0.75 0
0 0.6875 0
0.0625 0.6875 0
0.0625 0.625 0
0.125 0.6875 0
0.375 0.5625 0
0.3125 0.5 0
0.5 0.5625 0
0.4375 0.5625 0
0.4375 0.6875 0
0.4375 0.625 0
0.3125 0.5625 0
0.4375 0.75 0
0.25 0.6875 0
0.3125 0.6875 0
0.3125 0.625 0
0.375 0.6875 0
0.625 0.5625 0
0.5625 0.5 0
0.75 0.5625 0
0.6875 0.5625 0
0.6875 0.6875 0
0.6875 0.625 0
0.5625 0.5625 0
0.6875 0.75 0
0.5 0.6875 0
0.5625 0.6875 0
0.5625 0.625 0
0.625 0.6875 0
0.875 0.5625 0
0.8125 0.5 0
1 0.5625 0
0.9375 0.5625 0
1 0.6875 0
0.9375 0.6875 0
0.9375 0.625 0
0.8125 0.5625 0
0.9375 0.75 0
0.75 0.6875 0
0.8125 0.6875 0
0.8125 0.625 0
0.875 0.6875 0
0 0.8125 0
0.0625 0.75 0
0.1875 0.8125 0
0.125 0.8125 0
0 0.9375 0
0.0625 0.8125 0
0.0625 0.875 0
0.125 0.9375 0
0.0625 1 0
0.0625 0.9375 0
0.25 0.8125 0
0.1875 1 0
0.1875 0.875 0
0.1875 0.9375 0
0.375 0.8125 0
0.3125 0.75 0
0.5 0.8125 0
0.4375 0.8125 0
0.4375 0.9375 0
0.4375 0.875 0
0.3125 0.8125 0
0.4375 1 0
0.375 0.9375 0
0.3125 1 0
0.25 0.9375 0
0.3125 0.9375 0
0.3125 0.875 0
0.625 0.8125 0
0.5625 0.75 0
0.75 0.8125 0
0.6875 0.8125 0
0.6875 0.9375 0
0.6875 0.875 0
0.5625 0.8125 0
0.6875 1 0
0.625 0.9375 0
0.5625 1 0
0.5 0.9375 0
0.5625 0.9375 0
0.5625 0.875 0
0.875 0.8125 0
0.8125 0.75 0
1 0.8125 0
0.9375 0.8125 0
1 0.9375 0
0.9375 0.9375 0
0.9375 0.875 0
0.8125 0.8125 0
0.9375 1 0
0.875 0.9375 0
0.8125 1 0
0.75 0.9375 0
0.8125 0.9375 0
0.8125 0.875 0

CELLS 576 2240
3 0 82 89
3 82 26 81
3 89 81 28
3 81 89 82
3 26 85 84
3 85 1 83
3 84 83 25
3 83 84 85
3 28 87 86
3 87 25 104
3 86 104 6
3 104 86 87
3 25 87 84
3 87 28 81
3 84 81 26
3 81 84 87
3 0 89 88
3 89 28 93
3 88 93 27
3 93 88 89
3 28 86 94
3 86 6 90
3 94 90 39
3 90 94 86
3 27 92 91
3 92 39 136
3 91 136 5
3 136 91 92
3 39 92 94
3 92 27 93
3 94 93 28
3 93 94 92
3 1 96 102
3 96 30 95
3 102 95 31
3 95 102 96
3 30 99 98
3 99 2 97
3 98 97 29
3 97 98 99
3 31 101 100
3 101 29 117
3 100 117 7
3 117 100 101
3 29 101 98
3 101 31 95
3 98 95 30
3 95 98 101
3 1 102 83
3 102 31 106
3 83 106 25
3 106 83 102
3 31 100 107
3 100 7 103
3 107 103 43
3 103 107 100
3 25 105 104
3 105 43 149
3 104 149 6
3 149 104 105
3 43 105 107
3 105 25 106
3 107 106 31
3 106 107 105
3 2 109 115
3 109 33 108
3 115 108 34
3 108 115 109
3 33 112 111
3 112 3 110
3 111 110 32
3 110 111 112
3 34 114 113
3 114 32 125
3 113 125 8
3 125 113 114
3 32 114 111
3 114 34 108
3 111 108 33
3 108 111 114
3 2 115 97
3 115 34 119
3 97 119 29
3 119 97 115
3 34 113 120
3 113 8 116
3 120 116 46
3 116 120 113
3 29 118 117
3 118 46 161
3 117 161 7
3 161 117 118
3 46 118 120
3 118 29 119
3 120 119 34
3 119 120 118
3 3 121 110
3 121 36 127
3 110 127 32
3 127 110 121
3 36 124 123
3 124 4 122
3 123 122 35
3 122 123 124
3 32 126 125
3 126 35 129
3 125 129 8
3 129 125 126
3 35 126 123
3 126 32 127
3 123 127 36
3 127 123 126
3 8 129 173
3 129 35 128
3 173 128 49
3 128 173 129
3 35 122 133
3 122 4 130
3 133 130 37
3 130 133 122
3 49 134 132
3 134 37 131
3 132 131 9
3 131 132 134
3 37 134 133
3 134 49 128
3 133 128 35
3 128 133 134
3 5 136 142
3 136 39 135
3 142 135 41
3 135 142 136
3 39 90 138
3 90 6 137
3 138 137 38
3 137 138 90
3 41 140 139
3 140 38 156
3 139 156 11
3 156 139 140
3 38 140 138
3 140 41 135
3 138 135 39
3 135 138 140
3 5 142 141
3 142 41 146
3 141 146 40
3 146 141 142
3 41 139 147
3 139 11 143
3 147 143 52
3 143 147 139
3 40 145 144
3 145 52 186
3 144 186 10
3 186 144 145
3 52 145 147
3 145 40 146
3 147 146 41
3 146 147 145
3 6 149 154
3 149 43 148
3 154 148 44
3 148 154 149
3 43 103 151
3 103 7 150
3 151 150 42
3 150 151 103
3 44 153 152
3 153 42 168
3 152 168 12
3 168 152 153
3 42 153 151
3 153 44 148
3 151 148 43
3 148 151 153
3 6 154 137
3 154 44 158
3 137 158 38
3 158 137 154
3 44 152 159
3 152 12 155
3 159 155 56
3 155 159 152
3 38 157 156
3 157 56 199
3 156 199 11
3 199 156 157
3 56 157 159
3 157 38 158
3 159 158 44
3 158 159 157
3 7 161 166
3 161 46 160
3 166 160 47
3 160 166 161
3 46 116 163
3 116 8 162
3 163 162 45
3 162 163 116
3 47 165 164
3 165 45 181
3 164 181 13
3 181 164 165
3 45 165 163
3 165 47 160
3 163 160 46
3 160 163 165
3 7 166 150
3 166 47 170
3 150 170 42
3 170 150 166
3 47 164 171
3 164 13 167
3 171 167 59
3 167 171 164
3 42 169 168
3 169 59 211
3 168 211 12
3 211 168 169
3 59 169 171
3 169 42 170
3 171 170 47
3 170 171 169
3 8 173 179
3 173 49 172
3 179 172 50
3 172 179 173
3 49 132 175
3 132 9 174
3 175 174 48
3 174 175 132
3 50 178 177
3 178 48 176
3 177 176 14
3 176 177 178
3 48 178 175
3 178 50 172
3 175 172 49
3 172 175 178
3 8 179 162
3 179 50 183
3 162 183 45
3 183 162 179
3 50 177 184
3 177 14 180
3 184 180 62
3 180 184 177
3 45 182 181
3 182 62 223
3 181 223 13
3 223 181 182
3 62 182 184
3 182 45 183
3 184 183 50
3 183 184 182
3 10 186 192
3 186 52 185
3 192 185 54
3 185 192 186
3 52 143 188
3 143 11 187
3 188 187 51
3 187 188 143
3 54 190 189
3 190 51 206
3 189 206 16
3 206 189 190
3 51 190 188
3 190 54 185
3 188 185 52
3 185 188 190
3 10 192 191
3 192 54 196
3 191 196 53
3 196 191 192
3 54 189 197
3 189 16 193
3 197 193 66
3 193 197 189
3 53 195 194
3 195 66 236
3 194 236 15
3 236 194 195
3 66 195 197
3 195 53 196
3 197 196 54
3 196 197 195
3 11 199 204
3 199 56 198
3 204 198 57
3 198 204 199
3 56 155 201
3 155 12 200
3 201 200 55
3 200 201 155
3 57 203 202
3 203 55 218
3 202 218 17
3 218 202 203
3 55 203 201
3 203 57 198
3 201 198 56
3 198 201 203
3 11 204 187
3 204 57 208
3 187 208 51
3 208 187 204
3 57 202 209
3 202 17 205
3 209 205 70
3 205 209 202
3 51 207 206
3 207 70 250
3 206 250 16
3 250 206 207
3 70 207 209
3 207 51 208
3 209 208 57
3 208 209 207
3 12 211 216
3 211 59 210
3 216 210 60
3 210 216 211
3 59 167 213
3 167 13 212
3 213 212 58
3 212 213 167
3 60 215 214
3 215 58 231
3 214 231 18
3 231 214 215
3 58 215 213
3 215 60 210
3 213 210 59
3 210 213 215
3 12 216 200
3 216 60 220
3 200 220 55
3 220 200 216
3 60 214 221
3 214 18 217
3 221 217 74
3 217 221 214
3 55 219 218
3 219 74 263
3 218 263 17
3 263 218 219
3 74 219 221
3 219 55 220
3 221 220 60
3 220 221 219
3 13 223 229
3 223 62 222
3 229 222 63
3 222 229 223
3 62 180 225
3 180 14 224
3 225 224 61
3 224 225 180
3 63 228 227
3 228 61 226
3 227 226 19
3 226 227 228
3 61 228 225
3 228 63 222
3 225 222 62
3 222 225 228
3 13 229 212
3 229 63 233
3 212 233 58
3 233 212 229
3 63 227 234
3 227 19 230
3 234 230 78
3 230 234 227
3 58 232 231
3 232 78 276
3 231 276 18
3 276 231 232
3 78 232 234
3 232 58 233
3 234 233 63
3 233 234 232
3 15 236 235
3 236 66 240
3 235 240 65
3 240 235 236
3 66 193 238
3 193 16 237
3 238 237 64
3 237 238 193
3 65 241 239
3 241 64 244
3 239 244 20
3 244 239 241
3 64 241 238
3 241 65 240
3 238 240 66
3 240 238 241
3 20 244 243
3 244 64 242
3 243 242 68
3 242 243 244
3 64 237 247
3 237 16 245
3 247 245 67
3 245 247 237
3 68 248 246
3 248 67 259
3 246 259 21
3 259 246 248
3 67 248 247
3 248 68 242
3 247 242 64
3 242 247 248
3 16 250 255
3 250 70 249
3 255 249 72
3 249 255 250
3 70 205 252
3 205 17 251
3 252 251 69
3 251 252 205
3 72 254 253
3 254 69 272
3 253 272 22
3 272 253 254
3 69 254 252
3 254 72 249
3 252 249 70
3 249 252 254
3 16 255 245
3 255 72 261
3 245 261 67
3 261 245 255
3 72 253 257
3 253 22 256
3 257 256 71
3 256 257 253
3 67 260 259
3 260 71 258
3 259 258 21
3 258 259 260
3 71 260 257
3 260 67 261
3 257 261 72
3 261 257 260
3 17 263 268
3 263 74 262
3 268 262 76
3 262 268 263
3 74 217 265
3 217 18 264
3 265 264 73
3 264 265 217
3 76 267 266
3 267 73 286
3 266 286 23
3 286 266 267
3 73 267 265
3 267 76 262
3 265 262 74
3 262 265 267
3 17 268 251
3 268 76 274
3 251 274 69
3 274 251 268
3 76 266 270
3 266 23 269
3 270 269 75
3 269 270 266
3 69 273 272
3 273 75 271
3 272 271 22
3 271 272 273
3 75 273 270
3 273 69 274
3 270 274 76
3 274 270 273
3 18 276 282
3 276 78 275
3 282 275 80
3 275 282 276
3 78 230 278
3 230 19 277
3 278 277 77
3 277 278 230
3 80 281 280
3 281 77 279
3 280 279 24
3 279 280 281
3 77 281 278
3 281 80 275
3 278 275 78
3 275 278 281
3 18 282 264
3 282 80 288
3 264 288 73
3 288 264 282
3 80 280 284
3 280 24 283
3 284 283 79
3 283 284 280
3 73 287 286
3 287 79 285
3 286 285 23
3 285 286 287
3 79 287 284
3 287 73 288
3 284 288 80
3 288 284 287
2 0 82
2 82 26
2 26 85
2 85 1
2 27 88
2 88 0
2 5 91
2 91 27
2 1 96
2 96 30
2 30 99
2 99 2
2 2 109
2 109 33
2 33 112
2 112 3
2 3 121
2 121 36
2 36 124
2 124 4
2 4 130
2 130 37
2 37 131
2 131 9
2 40 141
2 141 5
2 10 144
2 144 40
2 9 174
2 174 48
2 48 176
2 176 14
2 53 191
2 191 10
2 15 194
2 194 53
2 14 224
2 224 61
2 61 226
2 226 19
2 65 235
2 235 15
2 20 239
2 239 65
2 68 243
2 243 20
2 21 246
2 246 68
2 22 256
2 256 71
2 71 258
2 258 21
2 23 269
2 269 75
2 75 271
2 271 22
2 19 277
2 277 77
2 77 279
2 279 24
2 24 283
2 283 79
2 79 285
2 285 23

CELL_TYPES 576
5 5 5 5 5 5 5 5 5 5 5 5 5 5 5 5 5 5 5 5 5 5 5 5 5 5 5 5 5 5 5 5 5 5 5 5 5 5 5 5 5 5 5 5 5 5 5 5 5 5 5 5 5 5 5 5 5 5 5 5 5 5 5 5 5 5 5 5 5 5 5 5 5 5 5 5 5 5 5 5 5 5 5 5 5 5 5 5 5 5 5 5 5 5 5 5 5 5 5 5 5 5 5 5 5 5 5 5 5 5 5 5 5 5 5 5 5 5 5 5 5 5 5 5 5 5 5 5 5 5 5 5 5 5 5 5 5 5 5 5 5 5 5 5 5 5 5 5 5 5 5 5 5 5 5 5 5 5 5 5 5 5 5 5 5 5 5 5 5 5 5 5 5 5 5 5 5 5 5 5 5 5 5 5 5 5 5 5 5 5 5 5 5 5 5 5 5 5 5 5 5 5 5 5 5 5 5 5 5 5 5 5 5 5 5 5 5 5 5 5 5 5 5 5 5 5 5 5 5 5 5 5 5 5 5 5 5 5 5 5 5 5 5 5 5 5 5 5 5 5 5 5 5 5 5 5 5 5 5 5 5 5 5 5 5 5 5 5 5 5 5 5 5 5 5 5 5 5 5 5 5 5 5 5 5 5 5 5 5 5 5 5 5 5 5 5 5 5 5 5 5 5 5 5 5 5 5 5 5 5 5 5 5 5 5 5 5 5 5 5 5 5 5 5 5 5 5 5 5 5 5 5 5 5 5 5 5 5 5 5 5 5 5 5 5 5 5 5 5 5 5 5 5 5 5 5 5 5 5 5 5 5 5 5 5 5 5 5 5 5 5 5 5 5 5 5 5 5 5 5 5 5 5 5 5 5 5 5 5 5 5 5 5 5 5 5 5 5 5 5 5 5 5 5 5 5 5 5 5 5 5 5 5 5 5 5 5 5 5 5 5 5 5 5 5 5 5 5 5 5 5 5 5 5 5 5 5 5 5 5 5 5 5 5 5 5 5 5 5 5 5 5 5 5 5 5 5 5 5 5 5 5 5 5 5 5 5 5 5 5 5 5 5 5 5 5 5 5 5 5 5 5 5 5 5 5 5 5 5 5 5 5 5 5 5 5 5 5 5 5 5 5 5 5 5 5 5 5 5 5 5 5 3 3 3 3 3 3 3 3 3 3 3 3 3 3 3 3 3 3 3 3 3 3 3 3 3 3 3 3 3 3 3 3 3 3 3 3 3 3 3 3 3 3 3 3 3 3 3 3 3 3 3 3 3 3 3 3 3 3 3 3 3 3 3 3 
CELL_DATA 576
Scalars  Label int 1
LOOKUP_TABLE FreeFempp_table
0
0
0
0
0
0
0
0
0
0
0
0
0
0
0
0
0
0
0
0
0
0
0
0
0
0
0
0
0
0
0
0
0
0
0
0
0
0
0
0
0
0
0
0
0
0
0
0
0
0
0
0
0
0
0
0
0
0
0
0
0
0
0
0
0
0
0
0
0
0
0
0
0
0
0
0
0
0
0
0
0
0
0
0
0
0
0
0
0
0
0
0
0
0
0
0
0
0
0
0
0
0
0
0
0
0
0
0
0
0
0
0
0
0
0
0
0
0
0
0
0
0
0
0
0
0
0
0
0
0
0
0
0
0
0
0
0
0
0
0
0
0
0
0
0
0
0
0
0
0
0
0
0
0
0
0
0
0
0
0
0
0
0
0
0
0
0
0
0
0
0
0
0
0
0
0
0
0
0
0
0
0
0
0
0
0
0
0
0
0
0
0
0
0
0
0
0
0
0
0
0
0
0
0
0
0
0
0
0
0
0
0
0
0
0
0
0
0
0
0
0
0
0
0
0
0
0
0
0
0
0
0
0
0
0
0
0
0
0
0
0
0
0
0
0
0
0
0
0
0
0
0
0
0
0
0
0
0
0
0
0
0
0
0
0
0
0
0
0
0
0
0
0
0
0
0
0
0
0
0
0
0
0
0
0
0
0
0
0
0
0
0
0
0
0
0
0
0
0
0
0
0
0
0
0
0
0
0
0
0
0
0
0
0
0
0
0
0
0
0
0
0
0
0
0
0
0
0
0
0
0
0
0
0
0
0
0
0
0
0
0
0
0
0
0
0
0
0
0
0
0
0
0
0
0
0
0
0
0
0
0
0
0
0
0
0
0
0
0
0
0
0
0
0
0
0
0
0
0
0
0
0
0
0
0
0
0
0
0
0
0
0
0
0
0
0
0
0
0
0
0
0
0
0
0
0
0
0
0
0
0
0
0
0
0
0
0
0
0
0
0
0
0
0
0
0
0
0
0
0
0
0
0
0
0
0
0
0
0
0
0
0
0
0
0
0
0
0
0
0
0
0
0
0
0
0
0
0
0
0
0
0
0
0
0
0
0
0
0
0
0
0
0
0
0
0
0
0
0
0
0
0
0
0
0
0
0
0
0
0
0
0
0
0
0
0
0
0
0
0
0
0
0
0
0
0
0
0
0
0
0
0
1
1
1
1
4
4
4
4
1
1
1
1
1
1
1
1
1
1
1
1
2
2
2
2
4
4
4
4
2
2
2
2
4
4
4
4
2
2
2
2
4
4
4
4
3
3
3
3
3
3
3
3
3
3
3
3
2
2
2
2
3
3
3
3

LOOKUP_TABLE FreeFempp_table 5
1.00000000 0.00000000 0.00000000 1.00000000
1.00000000 1.00000000 0.00000000 1.00000000
1.00000000 0.00000000 1.00000000 1.00000000
0.00000000 1.00000000 0.00000000 1.00000000
0.00000000 1.00000000 1.00000000 1.00000000

FIELD FieldData 1
Pressure 1 576 float
4.41045064e-04 1.08844403e-03 7.44261837e-04 8.58401007e-04 1.70189247e-03 2.25748564e-03 1.45071570e-03 1.86883484e-03 1.04182085e-03 1.20412535e-03 1.28963357e-03 1.27809960e-03 1.37026107e-03 1.08662446e-03 1.38112507e-03 1.10339117e-03 3.19782645e-04 7.65733828e-04 4.21689474e-04 4.51885135e-04 1.06719229e-03 1.28664915e-03 1.12526398e-03 1.16840401e-03 5.69596246e-04 9.36537341e-04 7.37293274e-04 8.95192090e-04 1.03675527e-03 6.80463971e-04 8.66486225e-04 8.26004602e-04 2.72944965e-03 3.09695816e-03 1.99404778e-03 2.63361097e-03 3.34473094e-03 3.46267852e-03 2.22493173e-03 2.99595576e-03 1.44401798e-03 1.43090729e-03 1.33797736e-03 1.57168601e-03 1.89314014e-03 1.86562096e-03 2.87107751e-03 2.15339707e-03 2.29408755e-03 1.76788401e-03 1.60063396e-03 1.75518275e-03 1.59152714e-03 1.40219310e-03 1.46150077e-03 1.40814681e-03 1.44127640e-03 1.46113581e-03 1.40167808e-03 1.37945218e-03 1.42146589e-03 1.33417489e-03 1.41675316e-03 1.54734158e-03 3.44559178e-03 3.29283020e-03 2.08509527e-03 2.88782106e-03 3.00842547e-03 2.60388921e-03 1.55742641e-03 2.30462011e-03 1.12494698e-03 8.73373123e-04 6.76418131e-04 8.62324494e-04 1.33168558e-03 1.60480826e-03 2.65353848e-03 1.86740246e-03 3.00229969e-03 1.78850850e-03 1.88324845e-03 2.20346707e-03 1.12872187e-03 7.72191444e-04 8.88798619e-04 8.12792219e-04 1.48737547e-03 1.10948819e-03 1.28427485e-03 1.21286581e-03 1.03650044e-03 1.40342361e-03 1.30359631e-03 1.33909180e-03 2.28055660e-03 1.72055198e-03 1.55292719e-03 1.91517232e-03 1.10097229e-03 4.46883321e-04 8.00762908e-04 8.79083702e-04 1.30082166e-03 1.12071610e-03 1.44730892e-03 1.33504823e-03 1.11005898e-03 1.39919529e-03 1.41457457e-03 1.18535454e-03 1.38309516e-03 1.11835403e-03 1.22238777e-03 1.30853383e-03 7.85652373e-04 3.25820118e-04 4.38008690e-04 4.60403797e-04 1.02913240e-03 6.06661313e-04 8.07602075e-04 9.22146952e-04 6.96710311e-04 1.13677350e-03 9.21553525e-04 8.72375444e-04 1.09376933e-03 1.19847234e-03 1.34783308e-03 1.06998777e-03 1.29366387e-03 1.38007780e-03 1.46114070e-03 1.34628231e-03 1.51004619e-03 1.52917136e-03 1.58444257e-03 1.48485485e-03 1.41840568e-03 1.32566446e-03 1.22147158e-03 1.40826020e-03 9.10751231e-04 1.20610464e-03 1.08061952e-03 1.27794873e-03 1.42356672e-03 1.53900182e-03 1.50997564e-03 1.59963337e-03 1.24221412e-03 1.45371712e-03 1.39368477e-03 1.60550943e-03 1.60820328e-03 1.44856190e-03 1.48424285e-03 1.33518875e-03 1.43519044e-03 1.44166790e-03 1.45522866e-03 1.44532719e-03 1.39230210e-03 1.28667068e-03 1.23266748e-03 1.31272734e-03 1.33911625e-03 1.16828806e-03 1.09231006e-03 1.18313625e-03 1.24821451e-03 1.37717137e-03 1.40796439e-03 1.37165457e-03 1.42394367e-03 1.44939532e-03 1.46264443e-03 1.48278999e-03 1.34416937e-03 1.10898155e-03 1.30043027e-03 1.29357202e-03 1.49650802e-03 1.43826066e-03 1.51788048e-03 1.53823185e-03 1.44307606e-03 1.51723041e-03 1.45596173e-03 1.44979497e-03 1.12817588e-03 9.22391599e-04 8.09566001e-04 9.87566193e-04 7.37057067e-04 5.89768984e-04 5.83540299e-04 7.57706526e-04 6.13858574e-04 5.91255783e-04 5.93691482e-04 7.42375560e-04 7.35798734e-04 8.32622056e-04 8.84279434e-04 6.49088761e-04 1.16234703e-03 9.45454114e-04 1.06691581e-03 1.04295404e-03 7.60526920e-04 7.36883259e-04 7.20907992e-04 5.96992555e-04 9.73792339e-04 8.07330245e-04 9.08456743e-04 8.46065581e-04 6.22095424e-04 9.49282665e-04 7.08636595e-04 8.81987682e-04 4.91531508e-04 3.73057701e-04 4.15849558e-04 5.63146430e-04 5.52273646e-04 8.60233675e-04 1.02864113e-03 7.84949749e-04 8.71954078e-04 1.19051908e-03 1.34536508e-03 1.16896338e-03 9.83313308e-04 6.81627658e-04 5.03291027e-04 7.12134584e-04 6.51335693e-04 6.08189614e-04 6.91480411e-04 5.09136065e-04 8.53105972e-04 1.34447834e-03 1.02221291e-03 1.02978561e-03 7.08958192e-04 6.89666544e-04 7.14476395e-04 5.63021342e-04 7.13296758e-04 5.40800451e-04 5.52123645e-04 6.31243282e-04 1.74906431e-03 1.72281393e-03 1.83639559e-03 1.56212645e-03 1.68130058e-03 1.63080543e-03 1.67803757e-03 1.57913042e-03 1.86999713e-03 1.74053153e-03 1.82189373e-03 1.63149112e-03 1.60715519e-03 1.65065110e-03 1.58426235e-03 1.76609121e-03 1.53580040e-03 1.66615169e-03 1.67332322e-03 1.88079174e-03 1.72164734e-03 1.66552910e-03 1.81367924e-03 1.99424219e-03 1.81475934e-03 1.91379047e-03 1.96232134e-03 2.10471195e-03 2.09190417e-03 2.00163014e-03 1.96035462e-03 1.77907711e-03 1.54841365e-03 1.41802465e-03 1.38437469e-03 1.41235325e-03 1.23580068e-03 1.00530370e-03 9.08447371e-04 1.02380698e-03 1.09165267e-03 8.03303323e-04 6.91891182e-04 8.21558700e-04 9.27722314e-04 1.17383373e-03 1.24371296e-03 1.16763928e-03 1.52442115e-03 1.37177994e-03 1.51638966e-03 1.55432697e-03 1.09180168e-03 7.06600084e-04 1.00002205e-03 1.01027382e-03 1.49813364e-03 1.25746010e-03 1.47966226e-03 1.58606388e-03 1.30975130e-03 1.56557385e-03 1.34724763e-03 1.31845230e-03 7.33952620e-04 5.33461221e-04 4.88337129e-04 7.25025311e-04 5.73210535e-04 5.86849579e-04 5.71937417e-04 7.22769066e-04 5.05558739e-04 5.50448487e-04 6.80016296e-04 6.70289679e-04 7.00769830e-04 6.60093443e-04 6.94410643e-04 5.42455411e-04 8.34287493e-04 6.36490178e-04 7.52443622e-04 6.14000310e-04 6.17843471e-04 6.43954088e-04 5.66416769e-04 4.63590637e-04 6.63476647e-04 4.76739282e-04 5.67555486e-04 3.85068677e-04 3.82278173e-04 4.87463665e-04 4.37673792e-04 5.42530674e-04 5.73375204e-04 8.70025484e-04 1.01950008e-03 8.51699966e-04 1.18076743e-03 1.48991426e-03 1.62127207e-03 1.50825118e-03 1.45095633e-03 1.73768646e-03 1.83846126e-03 1.79171492e-03 1.65799714e-03 1.33904361e-03 1.18549028e-03 1.32168876e-03 7.12173292e-04 1.00776611e-03 7.02488527e-04 7.05244543e-04 1.48025621e-03 1.90741033e-03 1.60734600e-03 1.56863651e-03 8.27489072e-04 1.29211531e-03 9.73047339e-04 9.98894102e-04 1.29314524e-03 8.54657555e-04 1.16040197e-03 1.15506828e-03 2.05105986e-03 1.85682566e-03 2.07146257e-03 2.04227981e-03 1.62929390e-03 1.37263478e-03 1.69241033e-03 1.66569662e-03 2.10765842e-03 1.96646270e-03 2.16119527e-03 2.13579577e-03 1.91962940e-03 2.10109819e-03 1.88903918e-03 1.89069787e-03 2.16033589e-03 1.96522614e-03 2.04227655e-03 2.07383255e-03 1.69776625e-03 1.39396486e-03 1.45472842e-03 1.46714714e-03 1.87871931e-03 1.54658232e-03 1.67034019e-03 1.67556701e-03 1.57339242e-03 1.91464950e-03 1.79316278e-03 1.76516490e-03 1.60332501e-03 1.26940594e-03 1.22340221e-03 1.19422516e-03 9.25864966e-04 5.77652128e-04 4.67636419e-04 5.84396766e-04 7.75278197e-04 3.71546543e-04 2.87969830e-04 3.31910240e-04 4.57386835e-04 8.00098118e-04 9.01620777e-04 8.44168419e-04 1.46578497e-03 1.13073876e-03 1.45504915e-03 1.59709016e-03 7.03217636e-04 2.14485917e-04 6.19207683e-04 7.16865703e-04 1.43520022e-03 1.01890927e-03 1.40365632e-03 1.49403629e-03 1.12554478e-03 1.56093470e-03 1.17631804e-03 1.07051153e-03 2.84224690e-04 3.23523622e-04 2.84134760e-04 4.10119013e-04 4.92259918e-04 8.30329605e-04 9.87119856e-04 7.92008708e-04 8.09791381e-04 1.15881511e-03 1.34386623e-03 1.10457779e-03 9.42191633e-04 6.08507195e-04 5.02011098e-04 6.47360575e-04 4.63589124e-04 3.34199431e-04 3.47012130e-04 1.82949152e-04 7.72989762e-04 1.29192951e-03 9.55413561e-04 9.78473108e-04 2.09139442e-04 5.83744550e-04 1.89639293e-04 1.47099840e-04 5.74327598e-04 8.54059617e-05 4.29831445e-04 4.15534363e-04 1.14162173e-03 1.42190582e-03 1.55775482e-03 1.41907518e-03 1.67804293e-03 1.92452746e-03 2.00001104e-03 2.00245366e-03 1.91519258e-03 2.07301672e-03 2.14940193e-03 2.11939658e-03 2.07346911e-03 1.81703875e-03 1.71921379e-03 1.78867613e-03 1.11271907e-03 1.54030882e-03 1.25175796e-03 1.29243906e-03 1.90875446e-03 2.14848341e-03 2.01102509e-03 2.06098310e-03 1.40290265e-03 1.82236417e-03 1.58279447e-03 1.65498140e-03 1.89723424e-03 1.46402558e-03 1.71614275e-03 1.66850199e-03 4.41045064e-04 1.08844403e-03 1.70189247e-03 2.25748564e-03 4.21689474e-04 3.19782645e-04 7.37293274e-04 5.69596246e-04 2.72944965e-03 3.09695816e-03 3.34473094e-03 3.46267852e-03 3.44559178e-03 3.29283020e-03 3.00842547e-03 2.60388921e-03 2.28055660e-03 1.72055198e-03 1.10097229e-03 4.46883321e-04 3.25820118e-04 4.38008690e-04 6.06661313e-04 8.07602075e-04 1.08061952e-03 9.10751231e-04 1.39368477e-03 1.24221412e-03 8.60233675e-04 1.02864113e-03 1.19051908e-03 1.34536508e-03 1.67332322e-03 1.53580040e-03 1.96232134e-03 1.81475934e-03 1.48991426e-03 1.62127207e-03 1.73768646e-03 1.83846126e-03 2.07146257e-03 2.05105986e-03 2.16119527e-03 2.10765842e-03 2.04227655e-03 2.16033589e-03 1.67034019e-03 1.87871931e-03 2.14485917e-04 6.19207683e-04 1.01890927e-03 1.40365632e-03 1.29192951e-03 9.55413561e-04 5.83744550e-04 1.89639293e-04 1.92452746e-03 2.00001104e-03 2.07301672e-03 2.14940193e-03 2.14848341e-03 2.01102509e-03 1.82236417e-03 1.58279447e-03 
POINT_DATA 289
FIELD FieldData 2
Velocity 3 289 float