# vtk DataFile Version 2.0
./pics/Error_1_9.vtk, Created by Freefem++ 
ASCII
DATASET UNSTRUCTURED_GRID
POINTS 289 float
0 0 0
0.25 0 0
0.5 0 0
0.75 0 0
1 0 0
0 0.25 0
0.25 0.25 0
0.5 0.25 0
0.75 0.25 0
1 0.25 0
0 0.5 0
0.25 0.5 0
0.5 0.5 0
0.75 0.5 0
1 0.5 0
0 0.75 0
0.25 0.75 0
0.5 0.75 0
0.75 0.75 0
1 0.75 0
0 1 0
0.25 1 0
0.5 1 0
0.75 1 0
1 1 0
0.25 0.125 0
0.125 0 0
0 0.125 0
0.125 0.125 0
0.5 0.125 0
0.375 0 0
0.375 0.125 0
0.75 0.125 0
0.625 0 0
0.625 0.125 0
0.875 0.125 0
0.875 0 0
1 0.125 0
0.25 0.375 0
0.125 0.25 0
0 0.375 0
0.125 0.375 0
0.5 0.375 0
0.375 0.25 0
0.375 0.375 0
0.75 0.375 0
0.625 0.25 0
0.625 0.375 0
1 0.375 0
0.875 0.25 0
0.875 0.375 0
0.25 0.625 0
0.125 0.5 0
0 0.625 0
0.125 0.625 0
0.5 0.625 0
0.375 0.5 0
0.375 0.625 0
0.75 0.625 0
0.625 0.5 0
0.625 0.625 0
1 0.625 0
0.875 0.5 0
0.875 0.625 0
0.125 0.875 0
0 0.875 0
0.125 0.75 0
0.25 0.875 0
0.125 1 0
0.5 0.875 0
0.375 0.75 0
0.375 1 0
0.375 0.875 0
0.75 0.875 0
0.625 0.75 0
0.625 1 0
0.625 0.875 0
1 0.875 0
0.875 0.75 0
0.875 1 0
0.875 0.875 0
0.125 0.0625 0
0.0625 0 0
0.25 0.0625 0
0.1875 0.0625 0
0.1875 0 0
0.1875 0.1875 0
0.1875 0.125 0
0 0.0625 0
0.0625 0.0625 0
0.1875 0.25 0
0 0.1875 0
0.0625 0.1875 0
0.0625 0.125 0
0.125 0.1875 0
0.375 0.0625 0
0.3125 0 0
0.5 0.0625 0
0.4375 0.0625 0
0.4375 0 0
0.4375 0.1875 0
0.4375 0.125 0
0.3125 0.0625 0
0.4375 0.25 0
0.25 0.1875 0
0.3125 0.1875 0
0.3125 0.125 0
0.375 0.1875 0
0.625 0.0625 0
0.5625 0 0
0.75 0.0625 0
0.6875 0.0625 0
0.6875 0 0
0.6875 0.1875 0
0.6875 0.125 0
0.5625 0.0625 0
0.6875 0.25 0
0.5 0.1875 0
0.5625 0.1875 0
0.5625 0.125 0
0.625 0.1875 0
0.8125 0 0
0.9375 0.0625 0
0.875 0.0625 0
0.9375 0 0
0.75 0.1875 0
0.8125 0.125 0
0.8125 0.0625 0
0.875 0.1875 0
0.8125 0.1875 0
1 0.0625 0
1 0.1875 0
0.9375 0.25 0
0.9375 0.125 0
0.9375 0.1875 0
0.125 0.3125 0
0.0625 0.25 0
0.25 0.3125 0
0.1875 0.3125 0
0.1875 0.4375 0
0.1875 0.375 0
0 0.3125 0
0.0625 0.3125 0
0.1875 0.5 0
0 0.4375 0
0.0625 0.4375 0
0.0625 0.375 0
0.125 0.4375 0
0.375 0.3125 0
0.3125 0.25 0
0.5 0.3125 0
0.4375 0.3125 0
0.4375 0.4375 0
0.4375 0.375 0
0.3125 0.3125 0
0.4375 0.5 0
0.25 0.4375 0
0.3125 0.4375 0
0.3125 0.375 0
0.375 0.4375 0
0.625 0.3125 0
0.5625 0.25 0
0.75 0.3125 0
0.6875 0.3125 0
0.6875 0.4375 0
0.6875 0.375 0
0.5625 0.3125 0
0.6875 0.5 0
0.5 0.4375 0
0.5625 0.4375 0
0.5625 0.375 0
0.625 0.4375 0
0.875 0.3125 0
0.8125 0.25 0
1 0.3125 0
0.9375 0.3125 0
1 0.4375 0
0.9375 0.4375 0
0.9375 0.375 0
0.8125 0.3125 0
0.9375 0.5 0
0.75 0.4375 0
0.8125 0.4375 0
0.8125 0.375 0
0.875 0.4375 0
0.125 0.5625 0
0.0625 0.5 0
0.25 0.5625 0
0.1875 0.5625 0
0.1875 0.6875 0
0.1875 0.625 0
0 0.5625 0
0.0625 0.5625 0
0.1875 0.75 0
0 0.6875 0
0.0625 0.6875 0
0.0625 0.625 0
0.125 0.6875 0
0.375 0.5625 0
0.3125 0.5 0
0.5 0.5625 0
0.4375 0.5625 0
0.4375 0.6875 0
0.4375 0.625 0
0.3125 0.5625 0
0.4375 0.75 0
0.25 0.6875 0
0.3125 0.6875 0
0.3125 0.625 0
0.375 0.6875 0
0.625 0.5625 0
0.5625 0.5 0
0.75 0.5625 0
0.6875 0.5625 0
0.6875 0.6875 0
0.6875 0.625 0
0.5625 0.5625 0
0.6875 0.75 0
0.5 0.6875 0
0.5625 0.6875 0
0.5625 0.625 0
0.625 0.6875 0
0.875 0.5625 0
0.8125 0.5 0
1 0.5625 0
0.9375 0.5625 0
1 0.6875 0
0.9375 0.6875 0
0.9375 0.625 0
0.8125 0.5625 0
0.9375 0.75 0
0.75 0.6875 0
0.8125 0.6875 0
0.8125 0.625 0
0.875 0.6875 0
0 0.8125 0
0.0625 0.75 0
0.1875 0.8125 0
0.125 0.8125 0
0 0.9375 0
0.0625 0.8125 0
0.0625 0.875 0
0.125 0.9375 0
0.0625 1 0
0.0625 0.9375 0
0.25 0.8125 0
0.1875 1 0
0.1875 0.875 0
0.1875 0.9375 0
0.375 0.8125 0
0.3125 0.75 0
0.5 0.8125 0
0.4375 0.8125 0
0.4375 0.9375 0
0.4375 0.875 0
0.3125 0.8125 0
0.4375 1 0
0.375 0.9375 0
0.3125 1 0
0.25 0.9375 0
0.3125 0.9375 0
0.3125 0.875 0
0.625 0.8125 0
0.5625 0.75 0
0.75 0.8125 0
0.6875 0.8125 0
0.6875 0.9375 0
0.6875 0.875 0
0.5625 0.8125 0
0.6875 1 0
0.625 0.9375 0
0.5625 1 0
0.5 0.9375 0
0.5625 0.9375 0
0.5625 0.875 0
0.875 0.8125 0
0.8125 0.75 0
1 0.8125 0
0.9375 0.8125 0
1 0.9375 0
0.9375 0.9375 0
0.9375 0.875 0
0.8125 0.8125 0
0.9375 1 0
0.875 0.9375 0
0.8125 1 0
0.75 0.9375 0
0.8125 0.9375 0
0.8125 0.875 0

CELLS 576 2240
3 0 82 89
3 82 26 81
3 89 81 28
3 81 89 82
3 26 85 84
3 85 1 83
3 84 83 25
3 83 84 85
3 28 87 86
3 87 25 104
3 86 104 6
3 104 86 87
3 25 87 84
3 87 28 81
3 84 81 26
3 81 84 87
3 0 89 88
3 89 28 93
3 88 93 27
3 93 88 89
3 28 86 94
3 86 6 90
3 94 90 39
3 90 94 86
3 27 92 91
3 92 39 136
3 91 136 5
3 136 91 92
3 39 92 94
3 92 27 93
3 94 93 28
3 93 94 92
3 1 96 102
3 96 30 95
3 102 95 31
3 95 102 96
3 30 99 98
3 99 2 97
3 98 97 29
3 97 98 99
3 31 101 100
3 101 29 117
3 100 117 7
3 117 100 101
3 29 101 98
3 101 31 95
3 98 95 30
3 95 98 101
3 1 102 83
3 102 31 106
3 83 106 25
3 106 83 102
3 31 100 107
3 100 7 103
3 107 103 43
3 103 107 100
3 25 105 104
3 105 43 149
3 104 149 6
3 149 104 105
3 43 105 107
3 105 25 106
3 107 106 31
3 106 107 105
3 2 109 115
3 109 33 108
3 115 108 34
3 108 115 109
3 33 112 111
3 112 3 110
3 111 110 32
3 110 111 112
3 34 114 113
3 114 32 125
3 113 125 8
3 125 113 114
3 32 114 111
3 114 34 108
3 111 108 33
3 108 111 114
3 2 115 97
3 115 34 119
3 97 119 29
3 119 97 115
3 34 113 120
3 113 8 116
3 120 116 46
3 116 120 113
3 29 118 117
3 118 46 161
3 117 161 7
3 161 117 118
3 46 118 120
3 118 29 119
3 120 119 34
3 119 120 118
3 3 121 110
3 121 36 127
3 110 127 32
3 127 110 121
3 36 124 123
3 124 4 122
3 123 122 35
3 122 123 124
3 32 126 125
3 126 35 129
3 125 129 8
3 129 125 126
3 35 126 123
3 126 32 127
3 123 127 36
3 127 123 126
3 8 129 173
3 129 35 128
3 173 128 49
3 128 173 129
3 35 122 133
3 122 4 130
3 133 130 37
3 130 133 122
3 49 134 132
3 134 37 131
3 132 131 9
3 131 132 134
3 37 134 133
3 134 49 128
3 133 128 35
3 128 133 134
3 5 136 142
3 136 39 135
3 142 135 41
3 135 142 136
3 39 90 138
3 90 6 137
3 138 137 38
3 137 138 90
3 41 140 139
3 140 38 156
3 139 156 11
3 156 139 140
3 38 140 138
3 140 41 135
3 138 135 39
3 135 138 140
3 5 142 141
3 142 41 146
3 141 146 40
3 146 141 142
3 41 139 147
3 139 11 143
3 147 143 52
3 143 147 139
3 40 145 144
3 145 52 186
3 144 186 10
3 186 144 145
3 52 145 147
3 145 40 146
3 147 146 41
3 146 147 145
3 6 149 154
3 149 43 148
3 154 148 44
3 148 154 149
3 43 103 151
3 103 7 150
3 151 150 42
3 150 151 103
3 44 153 152
3 153 42 168
3 152 168 12
3 168 152 153
3 42 153 151
3 153 44 148
3 151 148 43
3 148 151 153
3 6 154 137
3 154 44 158
3 137 158 38
3 158 137 154
3 44 152 159
3 152 12 155
3 159 155 56
3 155 159 152
3 38 157 156
3 157 56 199
3 156 199 11
3 199 156 157
3 56 157 159
3 157 38 158
3 159 158 44
3 158 159 157
3 7 161 166
3 161 46 160
3 166 160 47
3 160 166 161
3 46 116 163
3 116 8 162
3 163 162 45
3 162 163 116
3 47 165 164
3 165 45 181
3 164 181 13
3 181 164 165
3 45 165 163
3 165 47 160
3 163 160 46
3 160 163 165
3 7 166 150
3 166 47 170
3 150 170 42
3 170 150 166
3 47 164 171
3 164 13 167
3 171 167 59
3 167 171 164
3 42 169 168
3 169 59 211
3 168 211 12
3 211 168 169
3 59 169 171
3 169 42 170
3 171 170 47
3 170 171 169
3 8 173 179
3 173 49 172
3 179 172 50
3 172 179 173
3 49 132 175
3 132 9 174
3 175 174 48
3 174 175 132
3 50 178 177
3 178 48 176
3 177 176 14
3 176 177 178
3 48 178 175
3 178 50 172
3 175 172 49
3 172 175 178
3 8 179 162
3 179 50 183
3 162 183 45
3 183 162 179
3 50 177 184
3 177 14 180
3 184 180 62
3 180 184 177
3 45 182 181
3 182 62 223
3 181 223 13
3 223 181 182
3 62 182 184
3 182 45 183
3 184 183 50
3 183 184 182
3 10 186 192
3 186 52 185
3 192 185 54
3 185 192 186
3 52 143 188
3 143 11 187
3 188 187 51
3 187 188 143
3 54 190 189
3 190 51 206
3 189 206 16
3 206 189 190
3 51 190 188
3 190 54 185
3 188 185 52
3 185 188 190
3 10 192 191
3 192 54 196
3 191 196 53
3 196 191 192
3 54 189 197
3 189 16 193
3 197 193 66
3 193 197 189
3 53 195 194
3 195 66 236
3 194 236 15
3 236 194 195
3 66 195 197
3 195 53 196
3 197 196 54
3 196 197 195
3 11 199 204
3 199 56 198
3 204 198 57
3 198 204 199
3 56 155 201
3 155 12 200
3 201 200 55
3 200 201 155
3 57 203 202
3 203 55 218
3 202 218 17
3 218 202 203
3 55 203 201
3 203 57 198
3 201 198 56
3 198 201 203
3 11 204 187
3 204 57 208
3 187 208 51
3 208 187 204
3 57 202 209
3 202 17 205
3 209 205 70
3 205 209 202
3 51 207 206
3 207 70 250
3 206 250 16
3 250 206 207
3 70 207 209
3 207 51 208
3 209 208 57
3 208 209 207
3 12 211 216
3 211 59 210
3 216 210 60
3 210 216 211
3 59 167 213
3 167 13 212
3 213 212 58
3 212 213 167
3 60 215 214
3 215 58 231
3 214 231 18
3 231 214 215
3 58 215 213
3 215 60 210
3 213 210 59
3 210 213 215
3 12 216 200
3 216 60 220
3 200 220 55
3 220 200 216
3 60 214 221
3 214 18 217
3 221 217 74
3 217 221 214
3 55 219 218
3 219 74 263
3 218 263 17
3 263 218 219
3 74 219 221
3 219 55 220
3 221 220 60
3 220 221 219
3 13 223 229
3 223 62 222
3 229 222 63
3 222 229 223
3 62 180 225
3 180 14 224
3 225 224 61
3 224 225 180
3 63 228 227
3 228 61 226
3 227 226 19
3 226 227 228
3 61 228 225
3 228 63 222
3 225 222 62
3 222 225 228
3 13 229 212
3 229 63 233
3 212 233 58
3 233 212 229
3 63 227 234
3 227 19 230
3 234 230 78
3 230 234 227
3 58 232 231
3 232 78 276
3 231 276 18
3 276 231 232
3 78 232 234
3 232 58 233
3 234 233 63
3 233 234 232
3 15 236 235
3 236 66 240
3 235 240 65
3 240 235 236
3 66 193 238
3 193 16 237
3 238 237 64
3 237 238 193
3 65 241 239
3 241 64 244
3 239 244 20
3 244 239 241
3 64 241 238
3 241 65 240
3 238 240 66
3 240 238 241
3 20 244 243
3 244 64 242
3 243 242 68
3 242 243 244
3 64 237 247
3 237 16 245
3 247 245 67
3 245 247 237
3 68 248 246
3 248 67 259
3 246 259 21
3 259 246 248
3 67 248 247
3 248 68 242
3 247 242 64
3 242 247 248
3 16 250 255
3 250 70 249
3 255 249 72
3 249 255 250
3 70 205 252
3 205 17 251
3 252 251 69
3 251 252 205
3 72 254 253
3 254 69 272
3 253 272 22
3 272 253 254
3 69 254 252
3 254 72 249
3 252 249 70
3 249 252 254
3 16 255 245
3 255 72 261
3 245 261 67
3 261 245 255
3 72 253 257
3 253 22 256
3 257 256 71
3 256 257 253
3 67 260 259
3 260 71 258
3 259 258 21
3 258 259 260
3 71 260 257
3 260 67 261
3 257 261 72
3 261 257 260
3 17 263 268
3 263 74 262
3 268 262 76
3 262 268 263
3 74 217 265
3 217 18 264
3 265 264 73
3 264 265 217
3 76 267 266
3 267 73 286
3 266 286 23
3 286 266 267
3 73 267 265
3 267 76 262
3 265 262 74
3 262 265 267
3 17 268 251
3 268 76 274
3 251 274 69
3 274 251 268
3 76 266 270
3 266 23 269
3 270 269 75
3 269 270 266
3 69 273 272
3 273 75 271
3 272 271 22
3 271 272 273
3 75 273 270
3 273 69 274
3 270 274 76
3 274 270 273
3 18 276 282
3 276 78 275
3 282 275 80
3 275 282 276
3 78 230 278
3 230 19 277
3 278 277 77
3 277 278 230
3 80 281 280
3 281 77 279
3 280 279 24
3 279 280 281
3 77 281 278
3 281 80 275
3 278 275 78
3 275 278 281
3 18 282 264
3 282 80 288
3 264 288 73
3 288 264 282
3 80 280 284
3 280 24 283
3 284 283 79
3 283 284 280
3 73 287 286
3 287 79 285
3 286 285 23
3 285 286 287
3 79 287 284
3 287 73 288
3 284 288 80
3 288 284 287
2 0 82
2 82 26
2 26 85
2 85 1
2 27 88
2 88 0
2 5 91
2 91 27
2 1 96
2 96 30
2 30 99
2 99 2
2 2 109
2 109 33
2 33 112
2 112 3
2 3 121
2 121 36
2 36 124
2 124 4
2 4 130
2 130 37
2 37 131
2 131 9
2 40 141
2 141 5
2 10 144
2 144 40
2 9 174
2 174 48
2 48 176
2 176 14
2 53 191
2 191 10
2 15 194
2 194 53
2 14 224
2 224 61
2 61 226
2 226 19
2 65 235
2 235 15
2 20 239
2 239 65
2 68 243
2 243 20
2 21 246
2 246 68
2 22 256
2 256 71
2 71 258
2 258 21
2 23 269
2 269 75
2 75 271
2 271 22
2 19 277
2 277 77
2 77 279
2 279 24
2 24 283
2 283 79
2 79 285
2 285 23

CELL_TYPES 576
5 5 5 5 5 5 5 5 5 5 5 5 5 5 5 5 5 5 5 5 5 5 5 5 5 5 5 5 5 5 5 5 5 5 5 5 5 5 5 5 5 5 5 5 5 5 5 5 5 5 5 5 5 5 5 5 5 5 5 5 5 5 5 5 5 5 5 5 5 5 5 5 5 5 5 5 5 5 5 5 5 5 5 5 5 5 5 5 5 5 5 5 5 5 5 5 5 5 5 5 5 5 5 5 5 5 5 5 5 5 5 5 5 5 5 5 5 5 5 5 5 5 5 5 5 5 5 5 5 5 5 5 5 5 5 5 5 5 5 5 5 5 5 5 5 5 5 5 5 5 5 5 5 5 5 5 5 5 5 5 5 5 5 5 5 5 5 5 5 5 5 5 5 5 5 5 5 5 5 5 5 5 5 5 5 5 5 5 5 5 5 5 5 5 5 5 5 5 5 5 5 5 5 5 5 5 5 5 5 5 5 5 5 5 5 5 5 5 5 5 5 5 5 5 5 5 5 5 5 5 5 5 5 5 5 5 5 5 5 5 5 5 5 5 5 5 5 5 5 5 5 5 5 5 5 5 5 5 5 5 5 5 5 5 5 5 5 5 5 5 5 5 5 5 5 5 5 5 5 5 5 5 5 5 5 5 5 5 5 5 5 5 5 5 5 5 5 5 5 5 5 5 5 5 5 5 5 5 5 5 5 5 5 5 5 5 5 5 5 5 5 5 5 5 5 5 5 5 5 5 5 5 5 5 5 5 5 5 5 5 5 5 5 5 5 5 5 5 5 5 5 5 5 5 5 5 5 5 5 5 5 5 5 5 5 5 5 5 5 5 5 5 5 5 5 5 5 5 5 5 5 5 5 5 5 5 5 5 5 5 5 5 5 5 5 5 5 5 5 5 5 5 5 5 5 5 5 5 5 5 5 5 5 5 5 5 5 5 5 5 5 5 5 5 5 5 5 5 5 5 5 5 5 5 5 5 5 5 5 5 5 5 5 5 5 5 5 5 5 5 5 5 5 5 5 5 5 5 5 5 5 5 5 5 5 5 5 5 5 5 5 5 5 5 5 5 5 5 5 5 5 5 5 5 5 5 5 5 5 5 5 5 5 5 5 5 5 5 5 5 5 5 5 5 5 5 5 5 5 5 5 5 3 3 3 3 3 3 3 3 3 3 3 3 3 3 3 3 3 3 3 3 3 3 3 3 3 3 3 3 3 3 3 3 3 3 3 3 3 3 3 3 3 3 3 3 3 3 3 3 3 3 3 3 3 3 3 3 3 3 3 3 3 3 3 3 
CELL_DATA 576
Scalars  Label int 1
LOOKUP_TABLE FreeFempp_table
0
0
0
0
0
0
0
0
0
0
0
0
0
0
0
0
0
0
0
0
0
0
0
0
0
0
0
0
0
0
0
0
0
0
0
0
0
0
0
0
0
0
0
0
0
0
0
0
0
0
0
0
0
0
0
0
0
0
0
0
0
0
0
0
0
0
0
0
0
0
0
0
0
0
0
0
0
0
0
0
0
0
0
0
0
0
0
0
0
0
0
0
0
0
0
0
0
0
0
0
0
0
0
0
0
0
0
0
0
0
0
0
0
0
0
0
0
0
0
0
0
0
0
0
0
0
0
0
0
0
0
0
0
0
0
0
0
0
0
0
0
0
0
0
0
0
0
0
0
0
0
0
0
0
0
0
0
0
0
0
0
0
0
0
0
0
0
0
0
0
0
0
0
0
0
0
0
0
0
0
0
0
0
0
0
0
0
0
0
0
0
0
0
0
0
0
0
0
0
0
0
0
0
0
0
0
0
0
0
0
0
0
0
0
0
0
0
0
0
0
0
0
0
0
0
0
0
0
0
0
0
0
0
0
0
0
0
0
0
0
0
0
0
0
0
0
0
0
0
0
0
0
0
0
0
0
0
0
0
0
0
0
0
0
0
0
0
0
0
0
0
0
0
0
0
0
0
0
0
0
0
0
0
0
0
0
0
0
0
0
0
0
0
0
0
0
0
0
0
0
0
0
0
0
0
0
0
0
0
0
0
0
0
0
0
0
0
0
0
0
0
0
0
0
0
0
0
0
0
0
0
0
0
0
0
0
0
0
0
0
0
0
0
0
0
0
0
0
0
0
0
0
0
0
0
0
0
0
0
0
0
0
0
0
0
0
0
0
0
0
0
0
0
0
0
0
0
0
0
0
0
0
0
0
0
0
0
0
0
0
0
0
0
0
0
0
0
0
0
0
0
0
0
0
0
0
0
0
0
0
0
0
0
0
0
0
0
0
0
0
0
0
0
0
0
0
0
0
0
0
0
0
0
0
0
0
0
0
0
0
0
0
0
0
0
0
0
0
0
0
0
0
0
0
0
0
0
0
0
0
0
0
0
0
0
0
0
0
0
0
0
0
0
0
0
0
0
0
0
0
0
0
0
0
0
0
0
0
0
0
0
0
0
0
0
0
0
0
0
0
0
0
0
0
0
0
0
0
0
0
0
0
1
1
1
1
4
4
4
4
1
1
1
1
1
1
1
1
1
1
1
1
2
2
2
2
4
4
4
4
2
2
2
2
4
4
4
4
2
2
2
2
4
4
4
4
3
3
3
3
3
3
3
3
3
3
3
3
2
2
2
2
3
3
3
3

LOOKUP_TABLE FreeFempp_table 5
1.00000000 0.00000000 0.00000000 1.00000000
1.00000000 1.00000000 0.00000000 1.00000000
1.00000000 0.00000000 1.00000000 1.00000000
0.00000000 1.00000000 0.00000000 1.00000000
0.00000000 1.00000000 1.00000000 1.00000000

FIELD FieldData 1
Pressure 1 576 float
4.48721257e-04 1.10490399e-03 7.93602900e-04 8.83794739e-04 1.72470475e-03 2.28525558e-03 1.53142482e-03 1.91701995e-03 1.06233789e-03 1.22775661e-03 1.30771461e-03 1.30957377e-03 1.39848993e-03 1.11066282e-03 1.41968369e-03 1.17078202e-03 3.27218877e-04 7.85258017e-04 4.34181478e-04 4.55357105e-04 1.09449343e-03 1.31123734e-03 1.14803342e-03 1.18592777e-03 5.83390822e-04 9.57094249e-04 7.50732434e-04 8.96174926e-04 1.04957784e-03 6.81612000e-04 8.80281499e-04 8.48552387e-04 2.76136026e-03 3.13210906e-03 2.09492259e-03 2.69611063e-03 3.38198058e-03 3.50070558e-03 2.33395281e-03 3.06523684e-03 1.50027429e-03 1.54110626e-03 1.35865668e-03 1.61299680e-03 2.00866512e-03 1.93428830e-03 2.93811318e-03 2.26019509e-03 2.35016434e-03 1.80287298e-03 1.63270719e-03 1.84708368e-03 1.63234153e-03 1.43262697e-03 1.49175059e-03 1.42826163e-03 1.47681078e-03 1.49011100e-03 1.42857176e-03 1.39778212e-03 1.44062832e-03 1.36029813e-03 1.44538202e-03 1.58615224e-03 3.48299812e-03 3.32833896e-03 2.18697637e-03 2.95411097e-03 3.04123014e-03 2.63374648e-03 1.64469541e-03 2.36123311e-03 1.22031174e-03 9.61515994e-04 7.04727485e-04 8.95829464e-04 1.42721285e-03 1.70775654e-03 2.71531590e-03 1.96196465e-03 3.07130883e-03 1.89876312e-03 1.99816725e-03 2.31071888e-03 1.16405787e-03 7.47876184e-04 9.05983557e-04 8.30474019e-04 1.52761082e-03 1.13698142e-03 1.31370453e-03 1.23339798e-03 1.05597544e-03 1.51140604e-03 1.40585180e-03 1.37699314e-03 2.30861688e-03 1.74436742e-03 1.63514807e-03 1.96461193e-03 1.11842097e-03 4.55014582e-04 8.53825011e-04 9.06118250e-04 1.32586667e-03 1.14249287e-03 1.46362884e-03 1.36740657e-03 1.13533973e-03 1.42722914e-03 1.45528466e-03 1.25684973e-03 1.40886486e-03 1.14834320e-03 1.24705432e-03 1.32229493e-03 8.06749682e-04 3.33708886e-04 4.51357831e-04 4.64099459e-04 1.04926620e-03 6.20569568e-04 8.17836495e-04 9.20342398e-04 6.97004376e-04 1.14433456e-03 9.35166201e-04 8.97067657e-04 1.09543384e-03 1.21198548e-03 1.36250455e-03 1.08885986e-03 1.31082337e-03 1.39621622e-03 1.47717260e-03 1.36463309e-03 1.52910070e-03 1.54573552e-03 1.60198228e-03 1.49902306e-03 1.43366447e-03 1.34265085e-03 1.24018092e-03 1.42620015e-03 9.24169901e-04 1.22471410e-03 1.09458528e-03 1.28021871e-03 1.44031504e-03 1.55300053e-03 1.52723084e-03 1.62011408e-03 1.25704333e-03 1.47406163e-03 1.40957150e-03 1.60854310e-03 1.62536150e-03 1.45124656e-03 1.50010199e-03 1.35442358e-03 1.45015167e-03 1.45638234e-03 1.46836904e-03 1.46523945e-03 1.40720198e-03 1.30163785e-03 1.24530669e-03 1.33300398e-03 1.35113124e-03 1.17983599e-03 1.10312027e-03 1.19541527e-03 1.26299332e-03 1.39232958e-03 1.42840436e-03 1.38453126e-03 1.44294335e-03 1.46448205e-03 1.47752988e-03 1.49680593e-03 1.35695154e-03 1.11995754e-03 1.31200592e-03 1.30511273e-03 1.50968612e-03 1.45022164e-03 1.53038243e-03 1.55257969e-03 1.45558978e-03 1.53117697e-03 1.46857160e-03 1.46276376e-03 1.14275876e-03 9.35895252e-04 8.20620975e-04 9.78154480e-04 7.29224819e-04 6.12823467e-04 5.97668812e-04 7.41832831e-04 6.24859415e-04 6.00830303e-04 6.01600681e-04 7.46363250e-04 7.39724725e-04 8.20554735e-04 8.67198163e-04 6.43891341e-04 1.18164846e-03 9.32542316e-04 1.08073477e-03 1.05505565e-03 7.50673295e-04 7.40338408e-04 7.26512750e-04 6.06430694e-04 9.83903883e-04 7.97900371e-04 8.98617553e-04 8.56055820e-04 6.16725185e-04 9.60169011e-04 7.02674792e-04 8.71444528e-04 5.15159045e-04 3.96049785e-04 4.28051950e-04 5.61562600e-04 5.46253577e-04 8.55483639e-04 1.02862145e-03 7.82491232e-04 8.74354970e-04 1.19323295e-03 1.34964590e-03 1.16944232e-03 9.82551952e-04 6.79538585e-04 4.94776585e-04 7.11847970e-04 6.53001072e-04 6.05639245e-04 6.92355621e-04 5.22731978e-04 8.54794809e-04 1.34548428e-03 1.02575554e-03 1.03380729e-03 7.09927175e-04 6.91997877e-04 7.14803347e-04 5.68932737e-04 7.13957881e-04 5.48732292e-04 5.51681092e-04 6.28821377e-04 1.75235805e-03 1.74138031e-03 1.85522716e-03 1.58406061e-03 1.70359551e-03 1.64989405e-03 1.69847871e-03 1.59368862e-03 1.88924163e-03 1.75898895e-03 1.83177250e-03 1.65044330e-03 1.62346242e-03 1.67127000e-03 1.60273374e-03 1.78935693e-03 1.55286572e-03 1.68988714e-03 1.69097690e-03 1.88365276e-03 1.74396823e-03 1.68455159e-03 1.83219521e-03 2.00092001e-03 1.83006702e-03 1.92978384e-03 1.96984271e-03 2.10134010e-03 2.09463784e-03 2.00211769e-03 1.97467045e-03 1.80250267e-03 1.56374380e-03 1.43089588e-03 1.39811495e-03 1.42377452e-03 1.24715595e-03 1.01553625e-03 9.18317819e-04 1.03381835e-03 1.10389292e-03 8.13153863e-04 7.02207268e-04 8.29927099e-04 9.36858647e-04 1.18400110e-03 1.25446077e-03 1.17920898e-03 1.53685757e-03 1.38323696e-03 1.52975169e-03 1.57097576e-03 1.10180152e-03 7.14415102e-04 1.01036532e-03 1.02361105e-03 1.51375565e-03 1.27152493e-03 1.49739115e-03 1.59967050e-03 1.32484175e-03 1.58230215e-03 1.36195391e-03 1.33088627e-03 7.43122771e-04 5.43149712e-04 4.97249421e-04 7.16306269e-04 5.81840402e-04 5.94033219e-04 5.78447070e-04 7.25232821e-04 5.12719911e-04 5.56220650e-04 6.79594232e-04 6.69918605e-04 7.01986195e-04 6.63758256e-04 6.99141587e-04 5.50359080e-04 8.25047144e-04 6.28341571e-04 7.43557292e-04 6.22428663e-04 6.20221079e-04 6.44635234e-04 5.67076670e-04 4.70067083e-04 6.54662668e-04 4.80025919e-04 5.58375032e-04 3.81575781e-04 3.89790657e-04 4.95306158e-04 4.45838901e-04 5.40338806e-04 5.78498060e-04 8.71952740e-04 1.02290430e-03 8.55494931e-04 1.18634617e-03 1.49546715e-03 1.62809819e-03 1.50949787e-03 1.46007317e-03 1.74583890e-03 1.84805610e-03 1.79326965e-03 1.65942276e-03 1.34515262e-03 1.19033072e-03 1.32895086e-03 7.11276545e-04 1.01307221e-03 7.00082746e-04 7.04625505e-04 1.48765370e-03 1.90900639e-03 1.61605922e-03 1.57994370e-03 8.30430479e-04 1.30084518e-03 9.77733405e-04 1.00176444e-03 1.30048173e-03 8.55537655e-04 1.16553192e-03 1.16199884e-03 2.05525220e-03 1.86826079e-03 2.08395417e-03 2.03836267e-03 1.64014788e-03 1.37464073e-03 1.70756353e-03 1.66788825e-03 2.12151720e-03 1.98304723e-03 2.16931477e-03 2.14103633e-03 1.93109945e-03 2.10161833e-03 1.88800378e-03 1.91016379e-03 2.16846075e-03 1.98224164e-03 2.05575186e-03 2.07868498e-03 1.71330618e-03 1.39529142e-03 1.46491977e-03 1.46950549e-03 1.89036480e-03 1.55708496e-03 1.67427317e-03 1.67199783e-03 1.57246902e-03 1.91477372e-03 1.80355157e-03 1.78410660e-03 1.61190599e-03 1.28442806e-03 1.23788603e-03 1.20966043e-03 9.40658327e-04 5.88939467e-04 4.79578681e-04 5.92080061e-04 7.87590921e-04 3.81231657e-04 2.90409778e-04 3.41152132e-04 4.65700636e-04 8.12782964e-04 9.12807824e-04 8.59759806e-04 1.48299627e-03 1.14726869e-03 1.47014589e-03 1.60197902e-03 7.17027229e-04 2.22033486e-04 6.29604387e-04 7.19336967e-04 1.44735863e-03 1.02943112e-03 1.40905695e-03 1.49138388e-03 1.12624618e-03 1.56262505e-03 1.18679623e-03 1.08687300e-03 2.81786924e-04 3.30548413e-04 2.80724664e-04 4.12043621e-04 4.90994367e-04 8.32164544e-04 9.91109060e-04 7.94816762e-04 8.10529629e-04 1.16261153e-03 1.34380767e-03 1.11198821e-03 9.47705528e-04 6.10289688e-04 5.00383147e-04 6.47687411e-04 4.53444460e-04 3.34361219e-04 3.35686636e-04 1.81983443e-04 7.76234374e-04 1.29734399e-03 9.57703916e-04 9.77961929e-04 1.98417954e-04 5.82881621e-04 1.85490426e-04 1.45315673e-04 5.73232013e-04 8.94055338e-05 4.27334657e-04 4.14802373e-04 1.14716543e-03 1.43209239e-03 1.57030008e-03 1.43004337e-03 1.69197854e-03 1.93575071e-03 2.01268308e-03 2.00413261e-03 1.92904088e-03 2.08521844e-03 2.15670443e-03 2.12426181e-03 2.07594503e-03 1.82944792e-03 1.72947545e-03 1.80465716e-03 1.11971726e-03 1.55410089e-03 1.26171904e-03 1.30040769e-03 1.92308007e-03 2.15579127e-03 2.02283147e-03 2.06544343e-03 1.41478947e-03 1.83369906e-03 1.59136741e-03 1.65539002e-03 1.89884042e-03 1.47095625e-03 1.72670546e-03 1.68402388e-03 4.48721257e-04 1.10490399e-03 1.72470475e-03 2.28525558e-03 4.34181478e-04 3.27218877e-04 7.50732434e-04 5.83390822e-04 2.76136026e-03 3.13210906e-03 3.38198058e-03 3.50070558e-03 3.48299812e-03 3.32833896e-03 3.04123014e-03 2.63374648e-03 2.30861688e-03 1.74436742e-03 1.11842097e-03 4.55014582e-04 3.33708886e-04 4.51357831e-04 6.20569568e-04 8.17836495e-04 1.09458528e-03 9.24169901e-04 1.40957150e-03 1.25704333e-03 8.55483639e-04 1.02862145e-03 1.19323295e-03 1.34964590e-03 1.69097690e-03 1.55286572e-03 1.96984271e-03 1.83006702e-03 1.49546715e-03 1.62809819e-03 1.74583890e-03 1.84805610e-03 2.08395417e-03 2.05525220e-03 2.16931477e-03 2.12151720e-03 2.05575186e-03 2.16846075e-03 1.67427317e-03 1.89036480e-03 2.22033486e-04 6.29604387e-04 1.02943112e-03 1.40905695e-03 1.29734399e-03 9.57703916e-04 5.82881621e-04 1.85490426e-04 1.93575071e-03 2.01268308e-03 2.08521844e-03 2.15670443e-03 2.15579127e-03 2.02283147e-03 1.83369906e-03 1.59136741e-03 
POINT_DATA 289
FIELD FieldData 2
Velocity 3 289 float