# vtk DataFile Version 2.0
./pics/Solution_1_7.vtk, Created by Freefem++ 
ASCII
DATASET UNSTRUCTURED_GRID
POINTS 289 float
0 0 0
0.25 0 0
0.5 0 0
0.75 0 0
1 0 0
0 0.25 0
0.25 0.25 0
0.5 0.25 0
0.75 0.25 0
1 0.25 0
0 0.5 0
0.25 0.5 0
0.5 0.5 0
0.75 0.5 0
1 0.5 0
0 0.75 0
0.25 0.75 0
0.5 0.75 0
0.75 0.75 0
1 0.75 0
0 1 0
0.25 1 0
0.5 1 0
0.75 1 0
1 1 0
0.25 0.125 0
0.125 0 0
0 0.125 0
0.125 0.125 0
0.5 0.125 0
0.375 0 0
0.375 0.125 0
0.75 0.125 0
0.625 0 0
0.625 0.125 0
0.875 0.125 0
0.875 0 0
1 0.125 0
0.25 0.375 0
0.125 0.25 0
0 0.375 0
0.125 0.375 0
0.5 0.375 0
0.375 0.25 0
0.375 0.375 0
0.75 0.375 0
0.625 0.25 0
0.625 0.375 0
1 0.375 0
0.875 0.25 0
0.875 0.375 0
0.25 0.625 0
0.125 0.5 0
0 0.625 0
0.125 0.625 0
0.5 0.625 0
0.375 0.5 0
0.375 0.625 0
0.75 0.625 0
0.625 0.5 0
0.625 0.625 0
1 0.625 0
0.875 0.5 0
0.875 0.625 0
0.125 0.875 0
0 0.875 0
0.125 0.75 0
0.25 0.875 0
0.125 1 0
0.5 0.875 0
0.375 0.75 0
0.375 1 0
0.375 0.875 0
0.75 0.875 0
0.625 0.75 0
0.625 1 0
0.625 0.875 0
1 0.875 0
0.875 0.75 0
0.875 1 0
0.875 0.875 0
0.125 0.0625 0
0.0625 0 0
0.25 0.0625 0
0.1875 0.0625 0
0.1875 0 0
0.1875 0.1875 0
0.1875 0.125 0
0 0.0625 0
0.0625 0.0625 0
0.1875 0.25 0
0 0.1875 0
0.0625 0.1875 0
0.0625 0.125 0
0.125 0.1875 0
0.375 0.0625 0
0.3125 0 0
0.5 0.0625 0
0.4375 0.0625 0
0.4375 0 0
0.4375 0.1875 0
0.4375 0.125 0
0.3125 0.0625 0
0.4375 0.25 0
0.25 0.1875 0
0.3125 0.1875 0
0.3125 0.125 0
0.375 0.1875 0
0.625 0.0625 0
0.5625 0 0
0.75 0.0625 0
0.6875 0.0625 0
0.6875 0 0
0.6875 0.1875 0
0.6875 0.125 0
0.5625 0.0625 0
0.6875 0.25 0
0.5 0.1875 0
0.5625 0.1875 0
0.5625 0.125 0
0.625 0.1875 0
0.8125 0 0
0.9375 0.0625 0
0.875 0.0625 0
0.9375 0 0
0.75 0.1875 0
0.8125 0.125 0
0.8125 0.0625 0
0.875 0.1875 0
0.8125 0.1875 0
1 0.0625 0
1 0.1875 0
0.9375 0.25 0
0.9375 0.125 0
0.9375 0.1875 0
0.125 0.3125 0
0.0625 0.25 0
0.25 0.3125 0
0.1875 0.3125 0
0.1875 0.4375 0
0.1875 0.375 0
0 0.3125 0
0.0625 0.3125 0
0.1875 0.5 0
0 0.4375 0
0.0625 0.4375 0
0.0625 0.375 0
0.125 0.4375 0
0.375 0.3125 0
0.3125 0.25 0
0.5 0.3125 0
0.4375 0.3125 0
0.4375 0.4375 0
0.4375 0.375 0
0.3125 0.3125 0
0.4375 0.5 0
0.25 0.4375 0
0.3125 0.4375 0
0.3125 0.375 0
0.375 0.4375 0
0.625 0.3125 0
0.5625 0.25 0
0.75 0.3125 0
0.6875 0.3125 0
0.6875 0.4375 0
0.6875 0.375 0
0.5625 0.3125 0
0.6875 0.5 0
0.5 0.4375 0
0.5625 0.4375 0
0.5625 0.375 0
0.625 0.4375 0
0.875 0.3125 0
0.8125 0.25 0
1 0.3125 0
0.9375 0.3125 0
1 0.4375 0
0.9375 0.4375 0
0.9375 0.375 0
0.8125 0.3125 0
0.9375 0.5 0
0.75 0.4375 0
0.8125 0.4375 0
0.8125 0.375 0
0.875 0.4375 0
0.125 0.5625 0
0.0625 0.5 0
0.25 0.5625 0
0.1875 0.5625 0
0.1875 0.6875 0
0.1875 0.625 0
0 0.5625 0
0.0625 0.5625 0
0.1875 0.75 0
0 0.6875 0
0.0625 0.6875 0
0.0625 0.625 0
0.125 0.6875 0
0.375 0.5625 0
0.3125 0.5 0
0.5 0.5625 0
0.4375 0.5625 0
0.4375 0.6875 0
0.4375 0.625 0
0.3125 0.5625 0
0.4375 0.75 0
0.25 0.6875 0
0.3125 0.6875 0
0.3125 0.625 0
0.375 0.6875 0
0.625 0.5625 0
0.5625 0.5 0
0.75 0.5625 0
0.6875 0.5625 0
0.6875 0.6875 0
0.6875 0.625 0
0.5625 0.5625 0
0.6875 0.75 0
0.5 0.6875 0
0.5625 0.6875 0
0.5625 0.625 0
0.625 0.6875 0
0.875 0.5625 0
0.8125 0.5 0
1 0.5625 0
0.9375 0.5625 0
1 0.6875 0
0.9375 0.6875 0
0.9375 0.625 0
0.8125 0.5625 0
0.9375 0.75 0
0.75 0.6875 0
0.8125 0.6875 0
0.8125 0.625 0
0.875 0.6875 0
0 0.8125 0
0.0625 0.75 0
0.1875 0.8125 0
0.125 0.8125 0
0 0.9375 0
0.0625 0.8125 0
0.0625 0.875 0
0.125 0.9375 0
0.0625 1 0
0.0625 0.9375 0
0.25 0.8125 0
0.1875 1 0
0.1875 0.875 0
0.1875 0.9375 0
0.375 0.8125 0
0.3125 0.75 0
0.5 0.8125 0
0.4375 0.8125 0
0.4375 0.9375 0
0.4375 0.875 0
0.3125 0.8125 0
0.4375 1 0
0.375 0.9375 0
0.3125 1 0
0.25 0.9375 0
0.3125 0.9375 0
0.3125 0.875 0
0.625 0.8125 0
0.5625 0.75 0
0.75 0.8125 0
0.6875 0.8125 0
0.6875 0.9375 0
0.6875 0.875 0
0.5625 0.8125 0
0.6875 1 0
0.625 0.9375 0
0.5625 1 0
0.5 0.9375 0
0.5625 0.9375 0
0.5625 0.875 0
0.875 0.8125 0
0.8125 0.75 0
1 0.8125 0
0.9375 0.8125 0
1 0.9375 0
0.9375 0.9375 0
0.9375 0.875 0
0.8125 0.8125 0
0.9375 1 0
0.875 0.9375 0
0.8125 1 0
0.75 0.9375 0
0.8125 0.9375 0
0.8125 0.875 0

CELLS 576 2240
3 0 82 89
3 82 26 81
3 89 81 28
3 81 89 82
3 26 85 84
3 85 1 83
3 84 83 25
3 83 84 85
3 28 87 86
3 87 25 104
3 86 104 6
3 104 86 87
3 25 87 84
3 87 28 81
3 84 81 26
3 81 84 87
3 0 89 88
3 89 28 93
3 88 93 27
3 93 88 89
3 28 86 94
3 86 6 90
3 94 90 39
3 90 94 86
3 27 92 91
3 92 39 136
3 91 136 5
3 136 91 92
3 39 92 94
3 92 27 93
3 94 93 28
3 93 94 92
3 1 96 102
3 96 30 95
3 102 95 31
3 95 102 96
3 30 99 98
3 99 2 97
3 98 97 29
3 97 98 99
3 31 101 100
3 101 29 117
3 100 117 7
3 117 100 101
3 29 101 98
3 101 31 95
3 98 95 30
3 95 98 101
3 1 102 83
3 102 31 106
3 83 106 25
3 106 83 102
3 31 100 107
3 100 7 103
3 107 103 43
3 103 107 100
3 25 105 104
3 105 43 149
3 104 149 6
3 149 104 105
3 43 105 107
3 105 25 106
3 107 106 31
3 106 107 105
3 2 109 115
3 109 33 108
3 115 108 34
3 108 115 109
3 33 112 111
3 112 3 110
3 111 110 32
3 110 111 112
3 34 114 113
3 114 32 125
3 113 125 8
3 125 113 114
3 32 114 111
3 114 34 108
3 111 108 33
3 108 111 114
3 2 115 97
3 115 34 119
3 97 119 29
3 119 97 115
3 34 113 120
3 113 8 116
3 120 116 46
3 116 120 113
3 29 118 117
3 118 46 161
3 117 161 7
3 161 117 118
3 46 118 120
3 118 29 119
3 120 119 34
3 119 120 118
3 3 121 110
3 121 36 127
3 110 127 32
3 127 110 121
3 36 124 123
3 124 4 122
3 123 122 35
3 122 123 124
3 32 126 125
3 126 35 129
3 125 129 8
3 129 125 126
3 35 126 123
3 126 32 127
3 123 127 36
3 127 123 126
3 8 129 173
3 129 35 128
3 173 128 49
3 128 173 129
3 35 122 133
3 122 4 130
3 133 130 37
3 130 133 122
3 49 134 132
3 134 37 131
3 132 131 9
3 131 132 134
3 37 134 133
3 134 49 128
3 133 128 35
3 128 133 134
3 5 136 142
3 136 39 135
3 142 135 41
3 135 142 136
3 39 90 138
3 90 6 137
3 138 137 38
3 137 138 90
3 41 140 139
3 140 38 156
3 139 156 11
3 156 139 140
3 38 140 138
3 140 41 135
3 138 135 39
3 135 138 140
3 5 142 141
3 142 41 146
3 141 146 40
3 146 141 142
3 41 139 147
3 139 11 143
3 147 143 52
3 143 147 139
3 40 145 144
3 145 52 186
3 144 186 10
3 186 144 145
3 52 145 147
3 145 40 146
3 147 146 41
3 146 147 145
3 6 149 154
3 149 43 148
3 154 148 44
3 148 154 149
3 43 103 151
3 103 7 150
3 151 150 42
3 150 151 103
3 44 153 152
3 153 42 168
3 152 168 12
3 168 152 153
3 42 153 151
3 153 44 148
3 151 148 43
3 148 151 153
3 6 154 137
3 154 44 158
3 137 158 38
3 158 137 154
3 44 152 159
3 152 12 155
3 159 155 56
3 155 159 152
3 38 157 156
3 157 56 199
3 156 199 11
3 199 156 157
3 56 157 159
3 157 38 158
3 159 158 44
3 158 159 157
3 7 161 166
3 161 46 160
3 166 160 47
3 160 166 161
3 46 116 163
3 116 8 162
3 163 162 45
3 162 163 116
3 47 165 164
3 165 45 181
3 164 181 13
3 181 164 165
3 45 165 163
3 165 47 160
3 163 160 46
3 160 163 165
3 7 166 150
3 166 47 170
3 150 170 42
3 170 150 166
3 47 164 171
3 164 13 167
3 171 167 59
3 167 171 164
3 42 169 168
3 169 59 211
3 168 211 12
3 211 168 169
3 59 169 171
3 169 42 170
3 171 170 47
3 170 171 169
3 8 173 179
3 173 49 172
3 179 172 50
3 172 179 173
3 49 132 175
3 132 9 174
3 175 174 48
3 174 175 132
3 50 178 177
3 178 48 176
3 177 176 14
3 176 177 178
3 48 178 175
3 178 50 172
3 175 172 49
3 172 175 178
3 8 179 162
3 179 50 183
3 162 183 45
3 183 162 179
3 50 177 184
3 177 14 180
3 184 180 62
3 180 184 177
3 45 182 181
3 182 62 223
3 181 223 13
3 223 181 182
3 62 182 184
3 182 45 183
3 184 183 50
3 183 184 182
3 10 186 192
3 186 52 185
3 192 185 54
3 185 192 186
3 52 143 188
3 143 11 187
3 188 187 51
3 187 188 143
3 54 190 189
3 190 51 206
3 189 206 16
3 206 189 190
3 51 190 188
3 190 54 185
3 188 185 52
3 185 188 190
3 10 192 191
3 192 54 196
3 191 196 53
3 196 191 192
3 54 189 197
3 189 16 193
3 197 193 66
3 193 197 189
3 53 195 194
3 195 66 236
3 194 236 15
3 236 194 195
3 66 195 197
3 195 53 196
3 197 196 54
3 196 197 195
3 11 199 204
3 199 56 198
3 204 198 57
3 198 204 199
3 56 155 201
3 155 12 200
3 201 200 55
3 200 201 155
3 57 203 202
3 203 55 218
3 202 218 17
3 218 202 203
3 55 203 201
3 203 57 198
3 201 198 56
3 198 201 203
3 11 204 187
3 204 57 208
3 187 208 51
3 208 187 204
3 57 202 209
3 202 17 205
3 209 205 70
3 205 209 202
3 51 207 206
3 207 70 250
3 206 250 16
3 250 206 207
3 70 207 209
3 207 51 208
3 209 208 57
3 208 209 207
3 12 211 216
3 211 59 210
3 216 210 60
3 210 216 211
3 59 167 213
3 167 13 212
3 213 212 58
3 212 213 167
3 60 215 214
3 215 58 231
3 214 231 18
3 231 214 215
3 58 215 213
3 215 60 210
3 213 210 59
3 210 213 215
3 12 216 200
3 216 60 220
3 200 220 55
3 220 200 216
3 60 214 221
3 214 18 217
3 221 217 74
3 217 221 214
3 55 219 218
3 219 74 263
3 218 263 17
3 263 218 219
3 74 219 221
3 219 55 220
3 221 220 60
3 220 221 219
3 13 223 229
3 223 62 222
3 229 222 63
3 222 229 223
3 62 180 225
3 180 14 224
3 225 224 61
3 224 225 180
3 63 228 227
3 228 61 226
3 227 226 19
3 226 227 228
3 61 228 225
3 228 63 222
3 225 222 62
3 222 225 228
3 13 229 212
3 229 63 233
3 212 233 58
3 233 212 229
3 63 227 234
3 227 19 230
3 234 230 78
3 230 234 227
3 58 232 231
3 232 78 276
3 231 276 18
3 276 231 232
3 78 232 234
3 232 58 233
3 234 233 63
3 233 234 232
3 15 236 235
3 236 66 240
3 235 240 65
3 240 235 236
3 66 193 238
3 193 16 237
3 238 237 64
3 237 238 193
3 65 241 239
3 241 64 244
3 239 244 20
3 244 239 241
3 64 241 238
3 241 65 240
3 238 240 66
3 240 238 241
3 20 244 243
3 244 64 242
3 243 242 68
3 242 243 244
3 64 237 247
3 237 16 245
3 247 245 67
3 245 247 237
3 68 248 246
3 248 67 259
3 246 259 21
3 259 246 248
3 67 248 247
3 248 68 242
3 247 242 64
3 242 247 248
3 16 250 255
3 250 70 249
3 255 249 72
3 249 255 250
3 70 205 252
3 205 17 251
3 252 251 69
3 251 252 205
3 72 254 253
3 254 69 272
3 253 272 22
3 272 253 254
3 69 254 252
3 254 72 249
3 252 249 70
3 249 252 254
3 16 255 245
3 255 72 261
3 245 261 67
3 261 245 255
3 72 253 257
3 253 22 256
3 257 256 71
3 256 257 253
3 67 260 259
3 260 71 258
3 259 258 21
3 258 259 260
3 71 260 257
3 260 67 261
3 257 261 72
3 261 257 260
3 17 263 268
3 263 74 262
3 268 262 76
3 262 268 263
3 74 217 265
3 217 18 264
3 265 264 73
3 264 265 217
3 76 267 266
3 267 73 286
3 266 286 23
3 286 266 267
3 73 267 265
3 267 76 262
3 265 262 74
3 262 265 267
3 17 268 251
3 268 76 274
3 251 274 69
3 274 251 268
3 76 266 270
3 266 23 269
3 270 269 75
3 269 270 266
3 69 273 272
3 273 75 271
3 272 271 22
3 271 272 273
3 75 273 270
3 273 69 274
3 270 274 76
3 274 270 273
3 18 276 282
3 276 78 275
3 282 275 80
3 275 282 276
3 78 230 278
3 230 19 277
3 278 277 77
3 277 278 230
3 80 281 280
3 281 77 279
3 280 279 24
3 279 280 281
3 77 281 278
3 281 80 275
3 278 275 78
3 275 278 281
3 18 282 264
3 282 80 288
3 264 288 73
3 288 264 282
3 80 280 284
3 280 24 283
3 284 283 79
3 283 284 280
3 73 287 286
3 287 79 285
3 286 285 23
3 285 286 287
3 79 287 284
3 287 73 288
3 284 288 80
3 288 284 287
2 0 82
2 82 26
2 26 85
2 85 1
2 27 88
2 88 0
2 5 91
2 91 27
2 1 96
2 96 30
2 30 99
2 99 2
2 2 109
2 109 33
2 33 112
2 112 3
2 3 121
2 121 36
2 36 124
2 124 4
2 4 130
2 130 37
2 37 131
2 131 9
2 40 141
2 141 5
2 10 144
2 144 40
2 9 174
2 174 48
2 48 176
2 176 14
2 53 191
2 191 10
2 15 194
2 194 53
2 14 224
2 224 61
2 61 226
2 226 19
2 65 235
2 235 15
2 20 239
2 239 65
2 68 243
2 243 20
2 21 246
2 246 68
2 22 256
2 256 71
2 71 258
2 258 21
2 23 269
2 269 75
2 75 271
2 271 22
2 19 277
2 277 77
2 77 279
2 279 24
2 24 283
2 283 79
2 79 285
2 285 23

CELL_TYPES 576
5 5 5 5 5 5 5 5 5 5 5 5 5 5 5 5 5 5 5 5 5 5 5 5 5 5 5 5 5 5 5 5 5 5 5 5 5 5 5 5 5 5 5 5 5 5 5 5 5 5 5 5 5 5 5 5 5 5 5 5 5 5 5 5 5 5 5 5 5 5 5 5 5 5 5 5 5 5 5 5 5 5 5 5 5 5 5 5 5 5 5 5 5 5 5 5 5 5 5 5 5 5 5 5 5 5 5 5 5 5 5 5 5 5 5 5 5 5 5 5 5 5 5 5 5 5 5 5 5 5 5 5 5 5 5 5 5 5 5 5 5 5 5 5 5 5 5 5 5 5 5 5 5 5 5 5 5 5 5 5 5 5 5 5 5 5 5 5 5 5 5 5 5 5 5 5 5 5 5 5 5 5 5 5 5 5 5 5 5 5 5 5 5 5 5 5 5 5 5 5 5 5 5 5 5 5 5 5 5 5 5 5 5 5 5 5 5 5 5 5 5 5 5 5 5 5 5 5 5 5 5 5 5 5 5 5 5 5 5 5 5 5 5 5 5 5 5 5 5 5 5 5 5 5 5 5 5 5 5 5 5 5 5 5 5 5 5 5 5 5 5 5 5 5 5 5 5 5 5 5 5 5 5 5 5 5 5 5 5 5 5 5 5 5 5 5 5 5 5 5 5 5 5 5 5 5 5 5 5 5 5 5 5 5 5 5 5 5 5 5 5 5 5 5 5 5 5 5 5 5 5 5 5 5 5 5 5 5 5 5 5 5 5 5 5 5 5 5 5 5 5 5 5 5 5 5 5 5 5 5 5 5 5 5 5 5 5 5 5 5 5 5 5 5 5 5 5 5 5 5 5 5 5 5 5 5 5 5 5 5 5 5 5 5 5 5 5 5 5 5 5 5 5 5 5 5 5 5 5 5 5 5 5 5 5 5 5 5 5 5 5 5 5 5 5 5 5 5 5 5 5 5 5 5 5 5 5 5 5 5 5 5 5 5 5 5 5 5 5 5 5 5 5 5 5 5 5 5 5 5 5 5 5 5 5 5 5 5 5 5 5 5 5 5 5 5 5 5 5 5 5 5 5 5 5 5 5 5 5 5 5 5 5 5 5 5 5 5 5 5 5 5 5 5 5 5 5 5 5 5 5 5 3 3 3 3 3 3 3 3 3 3 3 3 3 3 3 3 3 3 3 3 3 3 3 3 3 3 3 3 3 3 3 3 3 3 3 3 3 3 3 3 3 3 3 3 3 3 3 3 3 3 3 3 3 3 3 3 3 3 3 3 3 3 3 3 
CELL_DATA 576
Scalars  Label int 1
LOOKUP_TABLE FreeFempp_table
0
0
0
0
0
0
0
0
0
0
0
0
0
0
0
0
0
0
0
0
0
0
0
0
0
0
0
0
0
0
0
0
0
0
0
0
0
0
0
0
0
0
0
0
0
0
0
0
0
0
0
0
0
0
0
0
0
0
0
0
0
0
0
0
0
0
0
0
0
0
0
0
0
0
0
0
0
0
0
0
0
0
0
0
0
0
0
0
0
0
0
0
0
0
0
0
0
0
0
0
0
0
0
0
0
0
0
0
0
0
0
0
0
0
0
0
0
0
0
0
0
0
0
0
0
0
0
0
0
0
0
0
0
0
0
0
0
0
0
0
0
0
0
0
0
0
0
0
0
0
0
0
0
0
0
0
0
0
0
0
0
0
0
0
0
0
0
0
0
0
0
0
0
0
0
0
0
0
0
0
0
0
0
0
0
0
0
0
0
0
0
0
0
0
0
0
0
0
0
0
0
0
0
0
0
0
0
0
0
0
0
0
0
0
0
0
0
0
0
0
0
0
0
0
0
0
0
0
0
0
0
0
0
0
0
0
0
0
0
0
0
0
0
0
0
0
0
0
0
0
0
0
0
0
0
0
0
0
0
0
0
0
0
0
0
0
0
0
0
0
0
0
0
0
0
0
0
0
0
0
0
0
0
0
0
0
0
0
0
0
0
0
0
0
0
0
0
0
0
0
0
0
0
0
0
0
0
0
0
0
0
0
0
0
0
0
0
0
0
0
0
0
0
0
0
0
0
0
0
0
0
0
0
0
0
0
0
0
0
0
0
0
0
0
0
0
0
0
0
0
0
0
0
0
0
0
0
0
0
0
0
0
0
0
0
0
0
0
0
0
0
0
0
0
0
0
0
0
0
0
0
0
0
0
0
0
0
0
0
0
0
0
0
0
0
0
0
0
0
0
0
0
0
0
0
0
0
0
0
0
0
0
0
0
0
0
0
0
0
0
0
0
0
0
0
0
0
0
0
0
0
0
0
0
0
0
0
0
0
0
0
0
0
0
0
0
0
0
0
0
0
0
0
0
0
0
0
0
0
0
0
0
0
0
0
0
0
0
0
0
0
0
0
0
0
0
0
0
0
0
0
0
0
0
0
0
0
0
0
0
0
0
0
0
0
0
0
0
0
0
0
0
0
0
0
0
0
0
0
0
0
0
1
1
1
1
4
4
4
4
1
1
1
1
1
1
1
1
1
1
1
1
2
2
2
2
4
4
4
4
2
2
2
2
4
4
4
4
2
2
2
2
4
4
4
4
3
3
3
3
3
3
3
3
3
3
3
3
2
2
2
2
3
3
3
3

LOOKUP_TABLE FreeFempp_table 5
1.00000000 0.00000000 0.00000000 1.00000000
1.00000000 1.00000000 0.00000000 1.00000000
1.00000000 0.00000000 1.00000000 1.00000000
0.00000000 1.00000000 0.00000000 1.00000000
0.00000000 1.00000000 1.00000000 1.00000000

FIELD FieldData 1
Pressure 1 576 float
1.31103829e-01 3.22885662e-01 3.19724023e-01 2.59357065e-01 5.02269268e-01 6.62358940e-01 6.56036794e-01 6.10179484e-01 4.88068461e-01 6.43768370e-01 6.25608623e-01 5.89324057e-01 6.02476537e-01 4.37626243e-01 4.43275601e-01 4.97422069e-01 6.54938221e-02 2.56007671e-01 6.46064132e-02 1.29784822e-01 4.28023040e-01 5.70730507e-01 4.14471537e-01 4.74252641e-01 6.31369948e-02 2.42378905e-01 6.10845089e-02 1.23625360e-01 3.04741681e-01 1.27286777e-01 3.13665509e-01 2.50347257e-01 7.96997249e-01 9.01007473e-01 8.92528832e-01 8.68146956e-01 9.70391512e-01 1.00248253e+00 9.93128955e-01 9.93943095e-01 9.43491459e-01 9.74763155e-01 9.47462380e-01 9.60422039e-01 9.81632710e-01 9.37492430e-01 9.49286580e-01 9.61302757e-01 7.53643453e-01 8.57318759e-01 7.44195342e-01 7.89451718e-01 9.17200685e-01 9.30329204e-01 8.88427734e-01 9.17032897e-01 7.28009522e-01 8.12374771e-01 7.05097198e-01 7.52947509e-01 8.51352274e-01 7.74747193e-01 8.75953496e-01 8.38723361e-01 9.96046782e-01 9.51330066e-01 9.42501128e-01 9.68405366e-01 8.70048583e-01 7.55325794e-01 7.48306870e-01 7.95397639e-01 8.46100807e-01 7.34524190e-01 7.14050531e-01 7.68704534e-01 7.85600781e-01 8.88114989e-01 8.99186492e-01 8.61979187e-01 1.00039947e+00 9.56467211e-01 9.88041222e-01 9.86782074e-01 8.68999898e-01 7.44733334e-01 8.41862321e-01 8.22485805e-01 9.66723859e-01 9.06598389e-01 9.36466455e-01 9.41468060e-01 8.99273038e-01 9.68563616e-01 9.25123990e-01 9.35858309e-01 6.62381768e-01 5.02286792e-01 6.56137168e-01 6.10224426e-01 3.22897077e-01 1.31109163e-01 3.19775909e-01 2.59375870e-01 6.43970847e-01 4.88238871e-01 6.25960231e-01 5.89563489e-01 4.37718302e-01 6.02599740e-01 4.43306565e-01 4.97498900e-01 5.71145773e-01 4.28223014e-01 4.14851516e-01 4.74581391e-01 2.56066501e-01 6.54993430e-02 6.46233186e-02 1.29808456e-01 2.42655188e-01 6.31772578e-02 6.11684956e-02 1.23752601e-01 1.27345890e-01 3.05002660e-01 3.13790858e-01 2.50484884e-01 1.18804678e-01 2.92959899e-01 2.78385103e-01 2.32121959e-01 4.55986083e-01 6.01573884e-01 5.71798384e-01 5.46742022e-01 4.06592965e-01 5.36531210e-01 4.96102065e-01 4.83326524e-01 5.17521441e-01 3.75739753e-01 3.97004455e-01 4.33369935e-01 5.84547371e-02 2.19645649e-01 5.52660152e-02 1.12851761e-01 3.50864828e-01 4.44482297e-01 3.22617054e-01 3.75905991e-01 5.15466854e-02 1.88504398e-01 4.73325662e-02 9.77646410e-02 2.41382554e-01 1.05816349e-01 2.61138707e-01 2.05059901e-01 7.24073768e-01 8.18750143e-01 7.78331459e-01 7.78341711e-01 8.81954789e-01 9.11255598e-01 8.66348445e-01 8.91434431e-01 7.86901534e-01 8.13117206e-01 7.52057612e-01 7.88457632e-01 8.44004452e-01 8.05921435e-01 8.51249635e-01 8.38456094e-01 6.75516963e-01 7.36857116e-01 6.39470696e-01 6.88288450e-01 7.52842844e-01 7.25318074e-01 6.92515075e-01 7.27771342e-01 5.97276211e-01 6.33090377e-01 5.49333394e-01 5.97277761e-01 6.75507367e-01 6.45891190e-01 7.30435073e-01 6.88286960e-01 9.05523956e-01 8.64974797e-01 8.22420299e-01 8.68764222e-01 7.91157007e-01 6.86901927e-01 6.53207183e-01 7.13743210e-01 7.06170261e-01 6.13222361e-01 5.67319691e-01 6.31579995e-01 6.75917864e-01 7.63954639e-01 8.06770265e-01 7.52280295e-01 8.97349536e-01 8.22612584e-01 8.49641025e-01 8.60934794e-01 7.13787556e-01 5.81150591e-01 6.56742752e-01 6.53255165e-01 7.93761194e-01 7.07082391e-01 7.30237126e-01 7.47431695e-01 7.14070618e-01 8.08073401e-01 7.71962523e-01 7.68548667e-01 5.56228817e-01 4.04176027e-01 3.84464592e-01 4.49968368e-01 2.36605182e-01 5.99487685e-02 5.70832565e-02 1.17667794e-01 2.11447299e-01 5.36659211e-02 4.97256592e-02 1.04306601e-01 1.11529782e-01 2.74175227e-01 2.89381385e-01 2.25118518e-01 5.93262315e-01 4.26235437e-01 5.61884403e-01 5.29010177e-01 2.56304651e-01 9.60690379e-02 2.35945851e-01 1.95719019e-01 5.25081277e-01 3.66654366e-01 4.83205050e-01 4.59559321e-01 3.34096342e-01 4.96687055e-01 3.61031801e-01 3.98373902e-01 8.87770131e-02 2.19312236e-01 1.95160821e-01 1.70146629e-01 3.41609806e-01 4.50903386e-01 4.01387244e-01 4.01371032e-01 2.63655514e-01 3.48066062e-01 2.91488916e-01 3.04169327e-01 3.54433954e-01 2.57181317e-01 2.91278392e-01 3.04056674e-01 4.26667407e-02 1.50187969e-01 3.76015715e-02 7.89505020e-02 2.20709831e-01 2.51088440e-01 1.82247519e-01 2.20843703e-01 3.21994089e-02 1.06412873e-01 2.65203677e-02 5.72566651e-02 1.41741693e-01 6.84022382e-02 1.69205382e-01 1.28866002e-01 5.42916596e-01 6.14075303e-01 5.46734214e-01 5.71800053e-01 6.61631644e-01 6.83753669e-01 6.08862698e-01 6.55191600e-01 5.10936975e-01 5.28106213e-01 4.42263126e-01 4.96741861e-01 5.78753829e-01 5.52498996e-01 6.25517964e-01 5.89119911e-01 4.96108532e-01 5.05013704e-01 4.38130468e-01 4.83340561e-01 4.74165559e-01 4.09947276e-01 3.91275287e-01 4.27838624e-01 3.75985444e-01 3.57616395e-01 3.10287297e-01 3.50961834e-01 3.97001714e-01 4.19143170e-01 4.74140704e-01 4.33386832e-01 6.79589748e-01 6.49298906e-01 5.78270912e-01 6.38803661e-01 5.94043911e-01 5.15944958e-01 4.59596813e-01 5.25118470e-01 4.59073126e-01 3.98819178e-01 3.34195971e-01 3.98460150e-01 4.64025438e-01 5.24277985e-01 5.93369246e-01 5.29107988e-01 6.59678102e-01 5.64369857e-01 5.82763314e-01 6.05200171e-01 4.50134188e-01 3.29051673e-01 3.71650428e-01 3.84612739e-01 5.00233531e-01 3.99955451e-01 4.12884146e-01 4.39699382e-01 4.20234948e-01 5.24979115e-01 5.01670539e-01 4.84497517e-01 4.17993635e-01 3.03929806e-01 2.70830929e-01 3.31393689e-01 1.78095341e-01 4.53033969e-02 4.04436737e-02 8.69018510e-02 1.37879029e-01 3.51938978e-02 2.96043567e-02 6.61486685e-02 7.68960938e-02 1.88608170e-01 2.13305831e-01 1.58752590e-01 4.36666757e-01 2.92937338e-01 3.85919034e-01 3.72397095e-01 1.62091807e-01 5.47618419e-02 1.34009525e-01 1.15674600e-01 3.31451356e-01 2.07946658e-01 2.73785353e-01 2.70907432e-01 1.97142512e-01 3.23211014e-01 2.35121012e-01 2.51656830e-01 2.35840920e-02 9.18450803e-02 1.75376218e-02 4.26094681e-02 1.56530291e-01 2.15138569e-01 1.15375400e-01 1.61546454e-01 1.12795932e-02 4.30070646e-02 4.86436998e-03 1.77423004e-02 7.39151314e-02 3.03686392e-02 1.04125082e-01 6.78279176e-02 4.86048870e-03 4.28112857e-02 1.11333262e-02 1.76112819e-02 1.14458732e-01 2.12674811e-01 1.50470361e-01 1.58348426e-01 1.69354249e-02 8.67172331e-02 2.20549479e-02 4.03839536e-02 9.99073237e-02 2.96040382e-02 7.29327574e-02 6.60915300e-02 2.79442668e-01 3.16059411e-01 2.32090130e-01 2.78422415e-01 3.40628386e-01 3.52163196e-01 2.58684516e-01 3.19211096e-01 1.57325059e-01 1.62749931e-01 6.53001666e-02 1.29516989e-01 2.25423440e-01 2.15075731e-01 3.04629058e-01 2.50156850e-01 2.41635561e-01 1.96559504e-01 1.70628339e-01 2.05233082e-01 1.23513885e-01 3.24234553e-02 3.08402814e-02 6.30544126e-02 9.79433283e-02 2.80951764e-02 2.43036151e-02 5.16011417e-02 5.84205464e-02 1.29032880e-01 1.45923376e-01 1.12841494e-01 3.50183398e-01 3.34747046e-01 2.46026993e-01 3.11557412e-01 3.06439906e-01 2.66343266e-01 1.95896953e-01 2.56460547e-01 1.41943440e-01 1.23500511e-01 4.98161465e-02 1.04454800e-01 1.81365475e-01 2.04697192e-01 2.89578229e-01 2.25296766e-01 3.21559548e-01 2.20154151e-01 2.27148533e-01 2.57297665e-01 1.17805712e-01 2.64495090e-02 2.97271907e-02 5.71594127e-02 1.30575240e-01 3.18611003e-02 3.27705704e-02 6.50496706e-02 6.23022281e-02 1.61945775e-01 1.54922932e-01 1.26623943e-01 2.15982303e-01 1.57253161e-01 1.15813613e-01 1.62215829e-01 9.23472196e-02 2.37273369e-02 1.76147241e-02 4.28404510e-02 4.31402549e-02 1.13149527e-02 4.87690931e-03 1.77938454e-02 3.04860901e-02 7.41833821e-02 1.04621589e-01 6.81037828e-02 2.13465631e-01 1.14873014e-01 1.51045009e-01 1.58942044e-01 4.29391079e-02 4.87287249e-03 1.11644072e-02 1.76590905e-02 8.70767012e-02 1.69946570e-02 2.21520159e-02 4.05489393e-02 2.96994746e-02 1.00290656e-01 7.31745958e-02 6.63192868e-02 1.31103829e-01 3.22885662e-01 5.02269268e-01 6.62358940e-01 6.46064132e-02 6.54938221e-02 6.10845089e-02 6.31369948e-02 7.96997249e-01 9.01007473e-01 9.70391512e-01 1.00248253e+00 9.96046782e-01 9.51330066e-01 8.70048583e-01 7.55325794e-01 6.62381768e-01 5.02286792e-01 3.22897077e-01 1.31109163e-01 6.54993430e-02 6.46233186e-02 6.31772578e-02 6.11684956e-02 5.52660152e-02 5.84547371e-02 4.73325662e-02 5.15466854e-02 5.99487685e-02 5.70832565e-02 5.36659211e-02 4.97256592e-02 3.76015715e-02 4.26667407e-02 2.65203677e-02 3.21994089e-02 4.53033969e-02 4.04436737e-02 3.51938978e-02 2.96043567e-02 1.75376218e-02 2.35840920e-02 4.86436998e-03 1.12795932e-02 1.11333262e-02 4.86048870e-03 2.20549479e-02 1.69354249e-02 3.24234553e-02 3.08402814e-02 2.80951764e-02 2.43036151e-02 2.64495090e-02 2.97271907e-02 3.18611003e-02 3.27705704e-02 2.37273369e-02 1.76147241e-02 1.13149527e-02 4.87690931e-03 4.87287249e-03 1.11644072e-02 1.69946570e-02 2.21520159e-02 
POINT_DATA 289
FIELD FieldData 2
Velocity 3 289 float