# vtk DataFile Version 2.0
./pics/Solution_1_1.vtk, Created by Freefem++ 
ASCII
DATASET UNSTRUCTURED_GRID
POINTS 289 float
0 0 0
0.25 0 0
0.5 0 0
0.75 0 0
1 0 0
0 0.25 0
0.25 0.25 0
0.5 0.25 0
0.75 0.25 0
1 0.25 0
0 0.5 0
0.25 0.5 0
0.5 0.5 0
0.75 0.5 0
1 0.5 0
0 0.75 0
0.25 0.75 0
0.5 0.75 0
0.75 0.75 0
1 0.75 0
0 1 0
0.25 1 0
0.5 1 0
0.75 1 0
1 1 0
0.25 0.125 0
0.125 0 0
0 0.125 0
0.125 0.125 0
0.5 0.125 0
0.375 0 0
0.375 0.125 0
0.75 0.125 0
0.625 0 0
0.625 0.125 0
0.875 0.125 0
0.875 0 0
1 0.125 0
0.25 0.375 0
0.125 0.25 0
0 0.375 0
0.125 0.375 0
0.5 0.375 0
0.375 0.25 0
0.375 0.375 0
0.75 0.375 0
0.625 0.25 0
0.625 0.375 0
1 0.375 0
0.875 0.25 0
0.875 0.375 0
0.25 0.625 0
0.125 0.5 0
0 0.625 0
0.125 0.625 0
0.5 0.625 0
0.375 0.5 0
0.375 0.625 0
0.75 0.625 0
0.625 0.5 0
0.625 0.625 0
1 0.625 0
0.875 0.5 0
0.875 0.625 0
0.125 0.875 0
0 0.875 0
0.125 0.75 0
0.25 0.875 0
0.125 1 0
0.5 0.875 0
0.375 0.75 0
0.375 1 0
0.375 0.875 0
0.75 0.875 0
0.625 0.75 0
0.625 1 0
0.625 0.875 0
1 0.875 0
0.875 0.75 0
0.875 1 0
0.875 0.875 0
0.125 0.0625 0
0.0625 0 0
0.25 0.0625 0
0.1875 0.0625 0
0.1875 0 0
0.1875 0.1875 0
0.1875 0.125 0
0 0.0625 0
0.0625 0.0625 0
0.1875 0.25 0
0 0.1875 0
0.0625 0.1875 0
0.0625 0.125 0
0.125 0.1875 0
0.375 0.0625 0
0.3125 0 0
0.5 0.0625 0
0.4375 0.0625 0
0.4375 0 0
0.4375 0.1875 0
0.4375 0.125 0
0.3125 0.0625 0
0.4375 0.25 0
0.25 0.1875 0
0.3125 0.1875 0
0.3125 0.125 0
0.375 0.1875 0
0.625 0.0625 0
0.5625 0 0
0.75 0.0625 0
0.6875 0.0625 0
0.6875 0 0
0.6875 0.1875 0
0.6875 0.125 0
0.5625 0.0625 0
0.6875 0.25 0
0.5 0.1875 0
0.5625 0.1875 0
0.5625 0.125 0
0.625 0.1875 0
0.8125 0 0
0.9375 0.0625 0
0.875 0.0625 0
0.9375 0 0
0.75 0.1875 0
0.8125 0.125 0
0.8125 0.0625 0
0.875 0.1875 0
0.8125 0.1875 0
1 0.0625 0
1 0.1875 0
0.9375 0.25 0
0.9375 0.125 0
0.9375 0.1875 0
0.125 0.3125 0
0.0625 0.25 0
0.25 0.3125 0
0.1875 0.3125 0
0.1875 0.4375 0
0.1875 0.375 0
0 0.3125 0
0.0625 0.3125 0
0.1875 0.5 0
0 0.4375 0
0.0625 0.4375 0
0.0625 0.375 0
0.125 0.4375 0
0.375 0.3125 0
0.3125 0.25 0
0.5 0.3125 0
0.4375 0.3125 0
0.4375 0.4375 0
0.4375 0.375 0
0.3125 0.3125 0
0.4375 0.5 0
0.25 0.4375 0
0.3125 0.4375 0
0.3125 0.375 0
0.375 0.4375 0
0.625 0.3125 0
0.5625 0.25 0
0.75 0.3125 0
0.6875 0.3125 0
0.6875 0.4375 0
0.6875 0.375 0
0.5625 0.3125 0
0.6875 0.5 0
0.5 0.4375 0
0.5625 0.4375 0
0.5625 0.375 0
0.625 0.4375 0
0.875 0.3125 0
0.8125 0.25 0
1 0.3125 0
0.9375 0.3125 0
1 0.4375 0
0.9375 0.4375 0
0.9375 0.375 0
0.8125 0.3125 0
0.9375 0.5 0
0.75 0.4375 0
0.8125 0.4375 0
0.8125 0.375 0
0.875 0.4375 0
0.125 0.5625 0
0.0625 0.5 0
0.25 0.5625 0
0.1875 0.5625 0
0.1875 0.6875 0
0.1875 0.625 0
0 0.5625 0
0.0625 0.5625 0
0.1875 0.75 0
0 0.6875 0
0.0625 0.6875 0
0.0625 0.625 0
0.125 0.6875 0
0.375 0.5625 0
0.3125 0.5 0
0.5 0.5625 0
0.4375 0.5625 0
0.4375 0.6875 0
0.4375 0.625 0
0.3125 0.5625 0
0.4375 0.75 0
0.25 0.6875 0
0.3125 0.6875 0
0.3125 0.625 0
0.375 0.6875 0
0.625 0.5625 0
0.5625 0.5 0
0.75 0.5625 0
0.6875 0.5625 0
0.6875 0.6875 0
0.6875 0.625 0
0.5625 0.5625 0
0.6875 0.75 0
0.5 0.6875 0
0.5625 0.6875 0
0.5625 0.625 0
0.625 0.6875 0
0.875 0.5625 0
0.8125 0.5 0
1 0.5625 0
0.9375 0.5625 0
1 0.6875 0
0.9375 0.6875 0
0.9375 0.625 0
0.8125 0.5625 0
0.9375 0.75 0
0.75 0.6875 0
0.8125 0.6875 0
0.8125 0.625 0
0.875 0.6875 0
0 0.8125 0
0.0625 0.75 0
0.1875 0.8125 0
0.125 0.8125 0
0 0.9375 0
0.0625 0.8125 0
0.0625 0.875 0
0.125 0.9375 0
0.0625 1 0
0.0625 0.9375 0
0.25 0.8125 0
0.1875 1 0
0.1875 0.875 0
0.1875 0.9375 0
0.375 0.8125 0
0.3125 0.75 0
0.5 0.8125 0
0.4375 0.8125 0
0.4375 0.9375 0
0.4375 0.875 0
0.3125 0.8125 0
0.4375 1 0
0.375 0.9375 0
0.3125 1 0
0.25 0.9375 0
0.3125 0.9375 0
0.3125 0.875 0
0.625 0.8125 0
0.5625 0.75 0
0.75 0.8125 0
0.6875 0.8125 0
0.6875 0.9375 0
0.6875 0.875 0
0.5625 0.8125 0
0.6875 1 0
0.625 0.9375 0
0.5625 1 0
0.5 0.9375 0
0.5625 0.9375 0
0.5625 0.875 0
0.875 0.8125 0
0.8125 0.75 0
1 0.8125 0
0.9375 0.8125 0
1 0.9375 0
0.9375 0.9375 0
0.9375 0.875 0
0.8125 0.8125 0
0.9375 1 0
0.875 0.9375 0
0.8125 1 0
0.75 0.9375 0
0.8125 0.9375 0
0.8125 0.875 0

CELLS 576 2240
3 0 82 89
3 82 26 81
3 89 81 28
3 81 89 82
3 26 85 84
3 85 1 83
3 84 83 25
3 83 84 85
3 28 87 86
3 87 25 104
3 86 104 6
3 104 86 87
3 25 87 84
3 87 28 81
3 84 81 26
3 81 84 87
3 0 89 88
3 89 28 93
3 88 93 27
3 93 88 89
3 28 86 94
3 86 6 90
3 94 90 39
3 90 94 86
3 27 92 91
3 92 39 136
3 91 136 5
3 136 91 92
3 39 92 94
3 92 27 93
3 94 93 28
3 93 94 92
3 1 96 102
3 96 30 95
3 102 95 31
3 95 102 96
3 30 99 98
3 99 2 97
3 98 97 29
3 97 98 99
3 31 101 100
3 101 29 117
3 100 117 7
3 117 100 101
3 29 101 98
3 101 31 95
3 98 95 30
3 95 98 101
3 1 102 83
3 102 31 106
3 83 106 25
3 106 83 102
3 31 100 107
3 100 7 103
3 107 103 43
3 103 107 100
3 25 105 104
3 105 43 149
3 104 149 6
3 149 104 105
3 43 105 107
3 105 25 106
3 107 106 31
3 106 107 105
3 2 109 115
3 109 33 108
3 115 108 34
3 108 115 109
3 33 112 111
3 112 3 110
3 111 110 32
3 110 111 112
3 34 114 113
3 114 32 125
3 113 125 8
3 125 113 114
3 32 114 111
3 114 34 108
3 111 108 33
3 108 111 114
3 2 115 97
3 115 34 119
3 97 119 29
3 119 97 115
3 34 113 120
3 113 8 116
3 120 116 46
3 116 120 113
3 29 118 117
3 118 46 161
3 117 161 7
3 161 117 118
3 46 118 120
3 118 29 119
3 120 119 34
3 119 120 118
3 3 121 110
3 121 36 127
3 110 127 32
3 127 110 121
3 36 124 123
3 124 4 122
3 123 122 35
3 122 123 124
3 32 126 125
3 126 35 129
3 125 129 8
3 129 125 126
3 35 126 123
3 126 32 127
3 123 127 36
3 127 123 126
3 8 129 173
3 129 35 128
3 173 128 49
3 128 173 129
3 35 122 133
3 122 4 130
3 133 130 37
3 130 133 122
3 49 134 132
3 134 37 131
3 132 131 9
3 131 132 134
3 37 134 133
3 134 49 128
3 133 128 35
3 128 133 134
3 5 136 142
3 136 39 135
3 142 135 41
3 135 142 136
3 39 90 138
3 90 6 137
3 138 137 38
3 137 138 90
3 41 140 139
3 140 38 156
3 139 156 11
3 156 139 140
3 38 140 138
3 140 41 135
3 138 135 39
3 135 138 140
3 5 142 141
3 142 41 146
3 141 146 40
3 146 141 142
3 41 139 147
3 139 11 143
3 147 143 52
3 143 147 139
3 40 145 144
3 145 52 186
3 144 186 10
3 186 144 145
3 52 145 147
3 145 40 146
3 147 146 41
3 146 147 145
3 6 149 154
3 149 43 148
3 154 148 44
3 148 154 149
3 43 103 151
3 103 7 150
3 151 150 42
3 150 151 103
3 44 153 152
3 153 42 168
3 152 168 12
3 168 152 153
3 42 153 151
3 153 44 148
3 151 148 43
3 148 151 153
3 6 154 137
3 154 44 158
3 137 158 38
3 158 137 154
3 44 152 159
3 152 12 155
3 159 155 56
3 155 159 152
3 38 157 156
3 157 56 199
3 156 199 11
3 199 156 157
3 56 157 159
3 157 38 158
3 159 158 44
3 158 159 157
3 7 161 166
3 161 46 160
3 166 160 47
3 160 166 161
3 46 116 163
3 116 8 162
3 163 162 45
3 162 163 116
3 47 165 164
3 165 45 181
3 164 181 13
3 181 164 165
3 45 165 163
3 165 47 160
3 163 160 46
3 160 163 165
3 7 166 150
3 166 47 170
3 150 170 42
3 170 150 166
3 47 164 171
3 164 13 167
3 171 167 59
3 167 171 164
3 42 169 168
3 169 59 211
3 168 211 12
3 211 168 169
3 59 169 171
3 169 42 170
3 171 170 47
3 170 171 169
3 8 173 179
3 173 49 172
3 179 172 50
3 172 179 173
3 49 132 175
3 132 9 174
3 175 174 48
3 174 175 132
3 50 178 177
3 178 48 176
3 177 176 14
3 176 177 178
3 48 178 175
3 178 50 172
3 175 172 49
3 172 175 178
3 8 179 162
3 179 50 183
3 162 183 45
3 183 162 179
3 50 177 184
3 177 14 180
3 184 180 62
3 180 184 177
3 45 182 181
3 182 62 223
3 181 223 13
3 223 181 182
3 62 182 184
3 182 45 183
3 184 183 50
3 183 184 182
3 10 186 192
3 186 52 185
3 192 185 54
3 185 192 186
3 52 143 188
3 143 11 187
3 188 187 51
3 187 188 143
3 54 190 189
3 190 51 206
3 189 206 16
3 206 189 190
3 51 190 188
3 190 54 185
3 188 185 52
3 185 188 190
3 10 192 191
3 192 54 196
3 191 196 53
3 196 191 192
3 54 189 197
3 189 16 193
3 197 193 66
3 193 197 189
3 53 195 194
3 195 66 236
3 194 236 15
3 236 194 195
3 66 195 197
3 195 53 196
3 197 196 54
3 196 197 195
3 11 199 204
3 199 56 198
3 204 198 57
3 198 204 199
3 56 155 201
3 155 12 200
3 201 200 55
3 200 201 155
3 57 203 202
3 203 55 218
3 202 218 17
3 218 202 203
3 55 203 201
3 203 57 198
3 201 198 56
3 198 201 203
3 11 204 187
3 204 57 208
3 187 208 51
3 208 187 204
3 57 202 209
3 202 17 205
3 209 205 70
3 205 209 202
3 51 207 206
3 207 70 250
3 206 250 16
3 250 206 207
3 70 207 209
3 207 51 208
3 209 208 57
3 208 209 207
3 12 211 216
3 211 59 210
3 216 210 60
3 210 216 211
3 59 167 213
3 167 13 212
3 213 212 58
3 212 213 167
3 60 215 214
3 215 58 231
3 214 231 18
3 231 214 215
3 58 215 213
3 215 60 210
3 213 210 59
3 210 213 215
3 12 216 200
3 216 60 220
3 200 220 55
3 220 200 216
3 60 214 221
3 214 18 217
3 221 217 74
3 217 221 214
3 55 219 218
3 219 74 263
3 218 263 17
3 263 218 219
3 74 219 221
3 219 55 220
3 221 220 60
3 220 221 219
3 13 223 229
3 223 62 222
3 229 222 63
3 222 229 223
3 62 180 225
3 180 14 224
3 225 224 61
3 224 225 180
3 63 228 227
3 228 61 226
3 227 226 19
3 226 227 228
3 61 228 225
3 228 63 222
3 225 222 62
3 222 225 228
3 13 229 212
3 229 63 233
3 212 233 58
3 233 212 229
3 63 227 234
3 227 19 230
3 234 230 78
3 230 234 227
3 58 232 231
3 232 78 276
3 231 276 18
3 276 231 232
3 78 232 234
3 232 58 233
3 234 233 63
3 233 234 232
3 15 236 235
3 236 66 240
3 235 240 65
3 240 235 236
3 66 193 238
3 193 16 237
3 238 237 64
3 237 238 193
3 65 241 239
3 241 64 244
3 239 244 20
3 244 239 241
3 64 241 238
3 241 65 240
3 238 240 66
3 240 238 241
3 20 244 243
3 244 64 242
3 243 242 68
3 242 243 244
3 64 237 247
3 237 16 245
3 247 245 67
3 245 247 237
3 68 248 246
3 248 67 259
3 246 259 21
3 259 246 248
3 67 248 247
3 248 68 242
3 247 242 64
3 242 247 248
3 16 250 255
3 250 70 249
3 255 249 72
3 249 255 250
3 70 205 252
3 205 17 251
3 252 251 69
3 251 252 205
3 72 254 253
3 254 69 272
3 253 272 22
3 272 253 254
3 69 254 252
3 254 72 249
3 252 249 70
3 249 252 254
3 16 255 245
3 255 72 261
3 245 261 67
3 261 245 255
3 72 253 257
3 253 22 256
3 257 256 71
3 256 257 253
3 67 260 259
3 260 71 258
3 259 258 21
3 258 259 260
3 71 260 257
3 260 67 261
3 257 261 72
3 261 257 260
3 17 263 268
3 263 74 262
3 268 262 76
3 262 268 263
3 74 217 265
3 217 18 264
3 265 264 73
3 264 265 217
3 76 267 266
3 267 73 286
3 266 286 23
3 286 266 267
3 73 267 265
3 267 76 262
3 265 262 74
3 262 265 267
3 17 268 251
3 268 76 274
3 251 274 69
3 274 251 268
3 76 266 270
3 266 23 269
3 270 269 75
3 269 270 266
3 69 273 272
3 273 75 271
3 272 271 22
3 271 272 273
3 75 273 270
3 273 69 274
3 270 274 76
3 274 270 273
3 18 276 282
3 276 78 275
3 282 275 80
3 275 282 276
3 78 230 278
3 230 19 277
3 278 277 77
3 277 278 230
3 80 281 280
3 281 77 279
3 280 279 24
3 279 280 281
3 77 281 278
3 281 80 275
3 278 275 78
3 275 278 281
3 18 282 264
3 282 80 288
3 264 288 73
3 288 264 282
3 80 280 284
3 280 24 283
3 284 283 79
3 283 284 280
3 73 287 286
3 287 79 285
3 286 285 23
3 285 286 287
3 79 287 284
3 287 73 288
3 284 288 80
3 288 284 287
2 0 82
2 82 26
2 26 85
2 85 1
2 27 88
2 88 0
2 5 91
2 91 27
2 1 96
2 96 30
2 30 99
2 99 2
2 2 109
2 109 33
2 33 112
2 112 3
2 3 121
2 121 36
2 36 124
2 124 4
2 4 130
2 130 37
2 37 131
2 131 9
2 40 141
2 141 5
2 10 144
2 144 40
2 9 174
2 174 48
2 48 176
2 176 14
2 53 191
2 191 10
2 15 194
2 194 53
2 14 224
2 224 61
2 61 226
2 226 19
2 65 235
2 235 15
2 20 239
2 239 65
2 68 243
2 243 20
2 21 246
2 246 68
2 22 256
2 256 71
2 71 258
2 258 21
2 23 269
2 269 75
2 75 271
2 271 22
2 19 277
2 277 77
2 77 279
2 279 24
2 24 283
2 283 79
2 79 285
2 285 23

CELL_TYPES 576
5 5 5 5 5 5 5 5 5 5 5 5 5 5 5 5 5 5 5 5 5 5 5 5 5 5 5 5 5 5 5 5 5 5 5 5 5 5 5 5 5 5 5 5 5 5 5 5 5 5 5 5 5 5 5 5 5 5 5 5 5 5 5 5 5 5 5 5 5 5 5 5 5 5 5 5 5 5 5 5 5 5 5 5 5 5 5 5 5 5 5 5 5 5 5 5 5 5 5 5 5 5 5 5 5 5 5 5 5 5 5 5 5 5 5 5 5 5 5 5 5 5 5 5 5 5 5 5 5 5 5 5 5 5 5 5 5 5 5 5 5 5 5 5 5 5 5 5 5 5 5 5 5 5 5 5 5 5 5 5 5 5 5 5 5 5 5 5 5 5 5 5 5 5 5 5 5 5 5 5 5 5 5 5 5 5 5 5 5 5 5 5 5 5 5 5 5 5 5 5 5 5 5 5 5 5 5 5 5 5 5 5 5 5 5 5 5 5 5 5 5 5 5 5 5 5 5 5 5 5 5 5 5 5 5 5 5 5 5 5 5 5 5 5 5 5 5 5 5 5 5 5 5 5 5 5 5 5 5 5 5 5 5 5 5 5 5 5 5 5 5 5 5 5 5 5 5 5 5 5 5 5 5 5 5 5 5 5 5 5 5 5 5 5 5 5 5 5 5 5 5 5 5 5 5 5 5 5 5 5 5 5 5 5 5 5 5 5 5 5 5 5 5 5 5 5 5 5 5 5 5 5 5 5 5 5 5 5 5 5 5 5 5 5 5 5 5 5 5 5 5 5 5 5 5 5 5 5 5 5 5 5 5 5 5 5 5 5 5 5 5 5 5 5 5 5 5 5 5 5 5 5 5 5 5 5 5 5 5 5 5 5 5 5 5 5 5 5 5 5 5 5 5 5 5 5 5 5 5 5 5 5 5 5 5 5 5 5 5 5 5 5 5 5 5 5 5 5 5 5 5 5 5 5 5 5 5 5 5 5 5 5 5 5 5 5 5 5 5 5 5 5 5 5 5 5 5 5 5 5 5 5 5 5 5 5 5 5 5 5 5 5 5 5 5 5 5 5 5 5 5 5 5 5 5 5 5 5 5 5 5 5 5 5 5 5 5 5 5 5 5 5 5 5 5 5 5 5 5 5 5 5 3 3 3 3 3 3 3 3 3 3 3 3 3 3 3 3 3 3 3 3 3 3 3 3 3 3 3 3 3 3 3 3 3 3 3 3 3 3 3 3 3 3 3 3 3 3 3 3 3 3 3 3 3 3 3 3 3 3 3 3 3 3 3 3 
CELL_DATA 576
Scalars  Label int 1
LOOKUP_TABLE FreeFempp_table
0
0
0
0
0
0
0
0
0
0
0
0
0
0
0
0
0
0
0
0
0
0
0
0
0
0
0
0
0
0
0
0
0
0
0
0
0
0
0
0
0
0
0
0
0
0
0
0
0
0
0
0
0
0
0
0
0
0
0
0
0
0
0
0
0
0
0
0
0
0
0
0
0
0
0
0
0
0
0
0
0
0
0
0
0
0
0
0
0
0
0
0
0
0
0
0
0
0
0
0
0
0
0
0
0
0
0
0
0
0
0
0
0
0
0
0
0
0
0
0
0
0
0
0
0
0
0
0
0
0
0
0
0
0
0
0
0
0
0
0
0
0
0
0
0
0
0
0
0
0
0
0
0
0
0
0
0
0
0
0
0
0
0
0
0
0
0
0
0
0
0
0
0
0
0
0
0
0
0
0
0
0
0
0
0
0
0
0
0
0
0
0
0
0
0
0
0
0
0
0
0
0
0
0
0
0
0
0
0
0
0
0
0
0
0
0
0
0
0
0
0
0
0
0
0
0
0
0
0
0
0
0
0
0
0
0
0
0
0
0
0
0
0
0
0
0
0
0
0
0
0
0
0
0
0
0
0
0
0
0
0
0
0
0
0
0
0
0
0
0
0
0
0
0
0
0
0
0
0
0
0
0
0
0
0
0
0
0
0
0
0
0
0
0
0
0
0
0
0
0
0
0
0
0
0
0
0
0
0
0
0
0
0
0
0
0
0
0
0
0
0
0
0
0
0
0
0
0
0
0
0
0
0
0
0
0
0
0
0
0
0
0
0
0
0
0
0
0
0
0
0
0
0
0
0
0
0
0
0
0
0
0
0
0
0
0
0
0
0
0
0
0
0
0
0
0
0
0
0
0
0
0
0
0
0
0
0
0
0
0
0
0
0
0
0
0
0
0
0
0
0
0
0
0
0
0
0
0
0
0
0
0
0
0
0
0
0
0
0
0
0
0
0
0
0
0
0
0
0
0
0
0
0
0
0
0
0
0
0
0
0
0
0
0
0
0
0
0
0
0
0
0
0
0
0
0
0
0
0
0
0
0
0
0
0
0
0
0
0
0
0
0
0
0
0
0
0
0
0
0
0
0
0
0
0
0
0
0
0
0
0
0
0
0
0
0
0
0
0
0
0
0
0
0
0
0
0
0
0
0
0
0
1
1
1
1
4
4
4
4
1
1
1
1
1
1
1
1
1
1
1
1
2
2
2
2
4
4
4
4
2
2
2
2
4
4
4
4
2
2
2
2
4
4
4
4
3
3
3
3
3
3
3
3
3
3
3
3
2
2
2
2
3
3
3
3

LOOKUP_TABLE FreeFempp_table 5
1.00000000 0.00000000 0.00000000 1.00000000
1.00000000 1.00000000 0.00000000 1.00000000
1.00000000 0.00000000 1.00000000 1.00000000
0.00000000 1.00000000 0.00000000 1.00000000
0.00000000 1.00000000 1.00000000 1.00000000

FIELD FieldData 1
Pressure 1 576 float
1.30072519e-01 3.20501029e-01 3.17186654e-01 2.57248640e-01 4.98637289e-01 6.57610893e-01 6.51150525e-01 6.05536222e-01 4.84665990e-01 6.39376938e-01 6.21537328e-01 5.85358143e-01 5.98105907e-01 4.34364766e-01 4.39841479e-01 4.93655026e-01 6.48749843e-02 2.53937572e-01 6.39466122e-02 1.28603265e-01 4.25039202e-01 5.67014456e-01 4.11654085e-01 4.71082538e-01 6.24670833e-02 2.40488082e-01 6.03973754e-02 1.22471817e-01 3.02521646e-01 1.26129001e-01 3.11325848e-01 2.48395264e-01 7.91309655e-01 8.94594789e-01 8.85953724e-01 8.61625671e-01 9.63496745e-01 9.95367467e-01 9.85839546e-01 9.86513376e-01 9.37144279e-01 9.68214571e-01 9.41399515e-01 9.54100728e-01 9.74654973e-01 9.30815697e-01 9.42176759e-01 9.54237103e-01 7.47955859e-01 8.51194918e-01 7.38852561e-01 7.83613861e-01 9.11152303e-01 9.24422204e-01 8.82775128e-01 9.11156118e-01 7.23169446e-01 8.07189941e-01 7.00570941e-01 7.48092294e-01 8.45884383e-01 7.69504547e-01 8.70048165e-01 8.33176494e-01 9.88981903e-01 9.44584906e-01 9.35597658e-01 9.61183131e-01 8.63880873e-01 7.49964476e-01 7.42814898e-01 7.89470792e-01 8.40458870e-01 7.29594052e-01 7.09479749e-01 7.63688207e-01 7.80050099e-01 8.81837070e-01 8.92487109e-01 8.55677664e-01 9.92931247e-01 9.49688256e-01 9.81027782e-01 9.79546189e-01 8.63325298e-01 7.40051746e-01 8.36563110e-01 8.17270279e-01 9.60371017e-01 9.00865853e-01 9.30530906e-01 9.35452223e-01 8.93541634e-01 9.62064683e-01 9.18929577e-01 9.29721475e-01 6.57650828e-01 4.98656094e-01 6.51235640e-01 6.05580807e-01 3.20513278e-01 1.30078107e-01 3.17207009e-01 2.57263064e-01 6.39494956e-01 4.84709591e-01 6.21739268e-01 5.85446656e-01 4.34394419e-01 5.98167539e-01 4.39865738e-01 4.93689120e-01 5.67278206e-01 4.25088674e-01 4.11914527e-01 4.71222818e-01 2.53954083e-01 6.48792535e-02 6.39499128e-02 1.28611267e-01 2.40740389e-01 6.24753684e-02 6.05164580e-02 1.22567251e-01 1.26141369e-01 3.02657187e-01 3.11354816e-01 2.48430163e-01 1.17643818e-01 2.90813267e-01 2.76307076e-01 2.30271727e-01 4.52969551e-01 5.97718239e-01 5.68141460e-01 5.43212414e-01 4.03873891e-01 5.33091366e-01 4.92905676e-01 4.80190128e-01 5.14177859e-01 3.73167217e-01 3.94308925e-01 4.30494845e-01 5.77501729e-02 2.17840269e-01 5.45484349e-02 1.11686207e-01 3.48431557e-01 4.41576719e-01 3.20339948e-01 3.73362780e-01 5.08216918e-02 1.86824620e-01 4.66051809e-02 9.66139138e-02 2.39478722e-01 1.04654059e-01 2.59140760e-01 2.03311518e-01 7.19481885e-01 8.13581049e-01 7.73438931e-01 7.73430645e-01 8.76400411e-01 9.05526280e-01 8.60928535e-01 8.85842264e-01 7.81972170e-01 8.08035195e-01 7.47355878e-01 7.83529699e-01 8.38726819e-01 8.00868630e-01 8.45897198e-01 8.33200514e-01 6.71226740e-01 7.32219100e-01 6.35415673e-01 6.83939695e-01 7.48123169e-01 7.20782757e-01 6.88169062e-01 7.23209023e-01 5.93482673e-01 6.29095674e-01 5.45831859e-01 5.93492210e-01 6.71255827e-01 6.41807735e-01 7.25844264e-01 6.83952391e-01 8.99839520e-01 8.59557927e-01 8.17293644e-01 8.63336861e-01 7.86224484e-01 6.82622969e-01 6.49169624e-01 7.09325612e-01 7.01781988e-01 6.09425128e-01 5.63804746e-01 6.27671540e-01 6.71739221e-01 7.59210646e-01 8.01749289e-01 7.47606099e-01 8.91730964e-01 8.17490041e-01 8.44339192e-01 8.55557501e-01 7.09356368e-01 5.77555537e-01 6.52667463e-01 6.49195671e-01 7.88811803e-01 7.02684164e-01 7.25683808e-01 7.42768884e-01 7.09624290e-01 8.03031921e-01 7.67154753e-01 7.63766587e-01 5.52740395e-01 4.01634157e-01 3.82146508e-01 4.47209269e-01 2.35092327e-01 5.95500208e-02 5.68026677e-02 1.16975702e-01 2.10254669e-01 5.34407385e-02 4.95599248e-02 1.03818394e-01 1.10956952e-01 2.72574365e-01 2.87628472e-01 2.23816648e-01 5.89596093e-01 4.23655897e-01 5.58435977e-01 5.25768757e-01 2.54827827e-01 9.56756696e-02 2.34620616e-01 1.94655776e-01 5.21850646e-01 3.64442497e-01 4.80234385e-01 4.56732482e-01 3.32091421e-01 4.93632764e-01 3.58853221e-01 3.95959049e-01 8.76429901e-02 2.17510462e-01 1.93450317e-01 1.68538839e-01 3.39255631e-01 4.47971672e-01 3.98723394e-01 3.98709953e-01 2.61622369e-01 3.45644832e-01 2.89349228e-01 3.01938206e-01 3.52005541e-01 2.55207032e-01 2.89163560e-01 3.01883131e-01 4.19395417e-02 1.48635104e-01 3.68716978e-02 7.78296664e-02 2.18833312e-01 2.49268696e-01 1.80746496e-01 2.19026729e-01 3.14647779e-02 1.05237551e-01 2.59739105e-02 5.62546849e-02 1.40243992e-01 6.72835186e-02 1.67550266e-01 1.27342314e-01 5.39458513e-01 6.10199511e-01 5.43263257e-01 5.68177342e-01 6.57477140e-01 6.79475188e-01 6.05046451e-01 6.51090205e-01 5.07698953e-01 5.24785876e-01 4.39465493e-01 4.93611634e-01 5.75122893e-01 5.49008250e-01 6.21583819e-01 5.85409284e-01 4.92922395e-01 5.01784205e-01 4.35265005e-01 4.80227500e-01 4.71140891e-01 4.07340258e-01 3.88730586e-01 4.25093561e-01 3.73425543e-01 3.55186760e-01 3.08075190e-01 3.48527849e-01 3.94380718e-01 4.16372389e-01 4.71091628e-01 4.30557013e-01 6.75348699e-01 6.45256341e-01 5.74670553e-01 6.34830832e-01 5.90354383e-01 5.12752235e-01 4.56759453e-01 5.21874964e-01 4.56227660e-01 3.96365374e-01 3.32151324e-01 3.96012604e-01 4.61165845e-01 5.21030068e-01 5.89689910e-01 5.25824666e-01 6.55563116e-01 5.60859740e-01 5.79124629e-01 6.01420403e-01 4.47348595e-01 3.27042222e-01 3.69354546e-01 3.82233083e-01 4.97103781e-01 3.97463560e-01 4.10289556e-01 4.36940879e-01 4.17616010e-01 5.21695495e-01 4.98546302e-01 4.81482804e-01 4.15431559e-01 3.02129686e-01 2.69257605e-01 3.29414845e-01 1.77181065e-01 4.52015996e-02 4.04082462e-02 8.66113901e-02 1.37297839e-01 3.52262259e-02 2.97057610e-02 6.60773888e-02 7.67134055e-02 1.87642410e-01 2.12153122e-01 1.58000067e-01 4.33991343e-01 2.91213900e-01 3.83567035e-01 3.70128363e-01 1.61324859e-01 5.48062734e-02 1.33454248e-01 1.15274198e-01 3.29446942e-01 2.06790984e-01 2.72151977e-01 2.69294530e-01 1.96074486e-01 3.21259171e-01 2.33791977e-01 2.50207633e-01 2.36552544e-02 9.16296691e-02 1.78375281e-02 4.28025164e-02 1.55946225e-01 2.14164048e-01 1.15238905e-01 1.61078721e-01 1.16441250e-02 4.33882102e-02 5.25736529e-03 1.82495061e-02 7.40664825e-02 3.07587851e-02 1.04012176e-01 6.80370405e-02 5.25174523e-03 4.31784205e-02 1.14716953e-02 1.80956740e-02 1.14302874e-01 2.11704344e-01 1.49846524e-01 1.57839850e-01 1.71689633e-02 8.64199772e-02 2.20613834e-02 4.04622965e-02 9.96935889e-02 2.99175512e-02 7.30345398e-02 6.62186667e-02 2.77396083e-01 3.13869029e-01 2.30325148e-01 2.76393354e-01 3.38387102e-01 3.49905550e-01 2.56967515e-01 3.17138076e-01 1.56046838e-01 1.61552817e-01 6.46626875e-02 1.28462493e-01 2.23873496e-01 2.13484168e-01 3.02568823e-01 2.48412848e-01 2.39890084e-01 1.94923908e-01 1.69228598e-01 2.03555584e-01 1.22358955e-01 3.20235528e-02 3.03542316e-02 6.23035952e-02 9.68822986e-02 2.75307726e-02 2.38322206e-02 5.07473834e-02 5.75621314e-02 1.27699360e-01 1.44560933e-01 1.11587144e-01 3.47971708e-01 3.32658201e-01 2.44489878e-01 3.09610188e-01 3.04552794e-01 2.64735103e-01 1.94764346e-01 2.54918188e-01 1.41144842e-01 1.22901753e-01 4.97409925e-02 1.03985928e-01 1.80332586e-01 2.03463018e-01 2.87798107e-01 2.23933548e-01 3.19516778e-01 2.18767762e-01 2.25659132e-01 2.55643785e-01 1.17152452e-01 2.64474936e-02 2.96192411e-02 5.69281541e-02 1.29629880e-01 3.16500850e-02 3.24618071e-02 6.45351484e-02 6.19236268e-02 1.60848528e-01 1.53957874e-01 1.25811309e-01 2.14734480e-01 1.56468347e-01 1.15353316e-01 1.61381736e-01 9.21416581e-02 2.39004735e-02 1.78665537e-02 4.30091545e-02 4.34314609e-02 1.16590727e-02 5.26885642e-03 1.82740148e-02 3.07986792e-02 7.41374269e-02 1.04299113e-01 6.81221858e-02 2.12233365e-01 1.14413805e-01 1.50265023e-01 1.58102646e-01 4.32255231e-02 5.26445080e-03 1.14950957e-02 1.81262866e-02 8.68179202e-02 1.72093976e-02 2.22571343e-02 4.06387709e-02 2.99701672e-02 9.99295488e-02 7.31078908e-02 6.63071424e-02 1.30072519e-01 3.20501029e-01 4.98637289e-01 6.57610893e-01 6.39466122e-02 6.48749843e-02 6.03973754e-02 6.24670833e-02 7.91309655e-01 8.94594789e-01 9.63496745e-01 9.95367467e-01 9.88981903e-01 9.44584906e-01 8.63880873e-01 7.49964476e-01 6.57650828e-01 4.98656094e-01 3.20513278e-01 1.30078107e-01 6.48792535e-02 6.39499128e-02 6.24753684e-02 6.05164580e-02 5.45484349e-02 5.77501729e-02 4.66051809e-02 5.08216918e-02 5.95500208e-02 5.68026677e-02 5.34407385e-02 4.95599248e-02 3.68716978e-02 4.19395417e-02 2.59739105e-02 3.14647779e-02 4.52015996e-02 4.04082462e-02 3.52262259e-02 2.97057610e-02 1.78375281e-02 2.36552544e-02 5.25736529e-03 1.16441250e-02 1.14716953e-02 5.25174523e-03 2.20613834e-02 1.71689633e-02 3.20235528e-02 3.03542316e-02 2.75307726e-02 2.38322206e-02 2.64474936e-02 2.96192411e-02 3.16500850e-02 3.24618071e-02 2.39004735e-02 1.78665537e-02 1.16590727e-02 5.26885642e-03 5.26445080e-03 1.14950957e-02 1.72093976e-02 2.22571343e-02 
POINT_DATA 289
FIELD FieldData 2
Velocity 3 289 float