# vtk DataFile Version 2.0
./pics/Solution_1_4.vtk, Created by Freefem++ 
ASCII
DATASET UNSTRUCTURED_GRID
POINTS 289 float
0 0 0
0.25 0 0
0.5 0 0
0.75 0 0
1 0 0
0 0.25 0
0.25 0.25 0
0.5 0.25 0
0.75 0.25 0
1 0.25 0
0 0.5 0
0.25 0.5 0
0.5 0.5 0
0.75 0.5 0
1 0.5 0
0 0.75 0
0.25 0.75 0
0.5 0.75 0
0.75 0.75 0
1 0.75 0
0 1 0
0.25 1 0
0.5 1 0
0.75 1 0
1 1 0
0.25 0.125 0
0.125 0 0
0 0.125 0
0.125 0.125 0
0.5 0.125 0
0.375 0 0
0.375 0.125 0
0.75 0.125 0
0.625 0 0
0.625 0.125 0
0.875 0.125 0
0.875 0 0
1 0.125 0
0.25 0.375 0
0.125 0.25 0
0 0.375 0
0.125 0.375 0
0.5 0.375 0
0.375 0.25 0
0.375 0.375 0
0.75 0.375 0
0.625 0.25 0
0.625 0.375 0
1 0.375 0
0.875 0.25 0
0.875 0.375 0
0.25 0.625 0
0.125 0.5 0
0 0.625 0
0.125 0.625 0
0.5 0.625 0
0.375 0.5 0
0.375 0.625 0
0.75 0.625 0
0.625 0.5 0
0.625 0.625 0
1 0.625 0
0.875 0.5 0
0.875 0.625 0
0.125 0.875 0
0 0.875 0
0.125 0.75 0
0.25 0.875 0
0.125 1 0
0.5 0.875 0
0.375 0.75 0
0.375 1 0
0.375 0.875 0
0.75 0.875 0
0.625 0.75 0
0.625 1 0
0.625 0.875 0
1 0.875 0
0.875 0.75 0
0.875 1 0
0.875 0.875 0
0.125 0.0625 0
0.0625 0 0
0.25 0.0625 0
0.1875 0.0625 0
0.1875 0 0
0.1875 0.1875 0
0.1875 0.125 0
0 0.0625 0
0.0625 0.0625 0
0.1875 0.25 0
0 0.1875 0
0.0625 0.1875 0
0.0625 0.125 0
0.125 0.1875 0
0.375 0.0625 0
0.3125 0 0
0.5 0.0625 0
0.4375 0.0625 0
0.4375 0 0
0.4375 0.1875 0
0.4375 0.125 0
0.3125 0.0625 0
0.4375 0.25 0
0.25 0.1875 0
0.3125 0.1875 0
0.3125 0.125 0
0.375 0.1875 0
0.625 0.0625 0
0.5625 0 0
0.75 0.0625 0
0.6875 0.0625 0
0.6875 0 0
0.6875 0.1875 0
0.6875 0.125 0
0.5625 0.0625 0
0.6875 0.25 0
0.5 0.1875 0
0.5625 0.1875 0
0.5625 0.125 0
0.625 0.1875 0
0.8125 0 0
0.9375 0.0625 0
0.875 0.0625 0
0.9375 0 0
0.75 0.1875 0
0.8125 0.125 0
0.8125 0.0625 0
0.875 0.1875 0
0.8125 0.1875 0
1 0.0625 0
1 0.1875 0
0.9375 0.25 0
0.9375 0.125 0
0.9375 0.1875 0
0.125 0.3125 0
0.0625 0.25 0
0.25 0.3125 0
0.1875 0.3125 0
0.1875 0.4375 0
0.1875 0.375 0
0 0.3125 0
0.0625 0.3125 0
0.1875 0.5 0
0 0.4375 0
0.0625 0.4375 0
0.0625 0.375 0
0.125 0.4375 0
0.375 0.3125 0
0.3125 0.25 0
0.5 0.3125 0
0.4375 0.3125 0
0.4375 0.4375 0
0.4375 0.375 0
0.3125 0.3125 0
0.4375 0.5 0
0.25 0.4375 0
0.3125 0.4375 0
0.3125 0.375 0
0.375 0.4375 0
0.625 0.3125 0
0.5625 0.25 0
0.75 0.3125 0
0.6875 0.3125 0
0.6875 0.4375 0
0.6875 0.375 0
0.5625 0.3125 0
0.6875 0.5 0
0.5 0.4375 0
0.5625 0.4375 0
0.5625 0.375 0
0.625 0.4375 0
0.875 0.3125 0
0.8125 0.25 0
1 0.3125 0
0.9375 0.3125 0
1 0.4375 0
0.9375 0.4375 0
0.9375 0.375 0
0.8125 0.3125 0
0.9375 0.5 0
0.75 0.4375 0
0.8125 0.4375 0
0.8125 0.375 0
0.875 0.4375 0
0.125 0.5625 0
0.0625 0.5 0
0.25 0.5625 0
0.1875 0.5625 0
0.1875 0.6875 0
0.1875 0.625 0
0 0.5625 0
0.0625 0.5625 0
0.1875 0.75 0
0 0.6875 0
0.0625 0.6875 0
0.0625 0.625 0
0.125 0.6875 0
0.375 0.5625 0
0.3125 0.5 0
0.5 0.5625 0
0.4375 0.5625 0
0.4375 0.6875 0
0.4375 0.625 0
0.3125 0.5625 0
0.4375 0.75 0
0.25 0.6875 0
0.3125 0.6875 0
0.3125 0.625 0
0.375 0.6875 0
0.625 0.5625 0
0.5625 0.5 0
0.75 0.5625 0
0.6875 0.5625 0
0.6875 0.6875 0
0.6875 0.625 0
0.5625 0.5625 0
0.6875 0.75 0
0.5 0.6875 0
0.5625 0.6875 0
0.5625 0.625 0
0.625 0.6875 0
0.875 0.5625 0
0.8125 0.5 0
1 0.5625 0
0.9375 0.5625 0
1 0.6875 0
0.9375 0.6875 0
0.9375 0.625 0
0.8125 0.5625 0
0.9375 0.75 0
0.75 0.6875 0
0.8125 0.6875 0
0.8125 0.625 0
0.875 0.6875 0
0 0.8125 0
0.0625 0.75 0
0.1875 0.8125 0
0.125 0.8125 0
0 0.9375 0
0.0625 0.8125 0
0.0625 0.875 0
0.125 0.9375 0
0.0625 1 0
0.0625 0.9375 0
0.25 0.8125 0
0.1875 1 0
0.1875 0.875 0
0.1875 0.9375 0
0.375 0.8125 0
0.3125 0.75 0
0.5 0.8125 0
0.4375 0.8125 0
0.4375 0.9375 0
0.4375 0.875 0
0.3125 0.8125 0
0.4375 1 0
0.375 0.9375 0
0.3125 1 0
0.25 0.9375 0
0.3125 0.9375 0
0.3125 0.875 0
0.625 0.8125 0
0.5625 0.75 0
0.75 0.8125 0
0.6875 0.8125 0
0.6875 0.9375 0
0.6875 0.875 0
0.5625 0.8125 0
0.6875 1 0
0.625 0.9375 0
0.5625 1 0
0.5 0.9375 0
0.5625 0.9375 0
0.5625 0.875 0
0.875 0.8125 0
0.8125 0.75 0
1 0.8125 0
0.9375 0.8125 0
1 0.9375 0
0.9375 0.9375 0
0.9375 0.875 0
0.8125 0.8125 0
0.9375 1 0
0.875 0.9375 0
0.8125 1 0
0.75 0.9375 0
0.8125 0.9375 0
0.8125 0.875 0

CELLS 576 2240
3 0 82 89
3 82 26 81
3 89 81 28
3 81 89 82
3 26 85 84
3 85 1 83
3 84 83 25
3 83 84 85
3 28 87 86
3 87 25 104
3 86 104 6
3 104 86 87
3 25 87 84
3 87 28 81
3 84 81 26
3 81 84 87
3 0 89 88
3 89 28 93
3 88 93 27
3 93 88 89
3 28 86 94
3 86 6 90
3 94 90 39
3 90 94 86
3 27 92 91
3 92 39 136
3 91 136 5
3 136 91 92
3 39 92 94
3 92 27 93
3 94 93 28
3 93 94 92
3 1 96 102
3 96 30 95
3 102 95 31
3 95 102 96
3 30 99 98
3 99 2 97
3 98 97 29
3 97 98 99
3 31 101 100
3 101 29 117
3 100 117 7
3 117 100 101
3 29 101 98
3 101 31 95
3 98 95 30
3 95 98 101
3 1 102 83
3 102 31 106
3 83 106 25
3 106 83 102
3 31 100 107
3 100 7 103
3 107 103 43
3 103 107 100
3 25 105 104
3 105 43 149
3 104 149 6
3 149 104 105
3 43 105 107
3 105 25 106
3 107 106 31
3 106 107 105
3 2 109 115
3 109 33 108
3 115 108 34
3 108 115 109
3 33 112 111
3 112 3 110
3 111 110 32
3 110 111 112
3 34 114 113
3 114 32 125
3 113 125 8
3 125 113 114
3 32 114 111
3 114 34 108
3 111 108 33
3 108 111 114
3 2 115 97
3 115 34 119
3 97 119 29
3 119 97 115
3 34 113 120
3 113 8 116
3 120 116 46
3 116 120 113
3 29 118 117
3 118 46 161
3 117 161 7
3 161 117 118
3 46 118 120
3 118 29 119
3 120 119 34
3 119 120 118
3 3 121 110
3 121 36 127
3 110 127 32
3 127 110 121
3 36 124 123
3 124 4 122
3 123 122 35
3 122 123 124
3 32 126 125
3 126 35 129
3 125 129 8
3 129 125 126
3 35 126 123
3 126 32 127
3 123 127 36
3 127 123 126
3 8 129 173
3 129 35 128
3 173 128 49
3 128 173 129
3 35 122 133
3 122 4 130
3 133 130 37
3 130 133 122
3 49 134 132
3 134 37 131
3 132 131 9
3 131 132 134
3 37 134 133
3 134 49 128
3 133 128 35
3 128 133 134
3 5 136 142
3 136 39 135
3 142 135 41
3 135 142 136
3 39 90 138
3 90 6 137
3 138 137 38
3 137 138 90
3 41 140 139
3 140 38 156
3 139 156 11
3 156 139 140
3 38 140 138
3 140 41 135
3 138 135 39
3 135 138 140
3 5 142 141
3 142 41 146
3 141 146 40
3 146 141 142
3 41 139 147
3 139 11 143
3 147 143 52
3 143 147 139
3 40 145 144
3 145 52 186
3 144 186 10
3 186 144 145
3 52 145 147
3 145 40 146
3 147 146 41
3 146 147 145
3 6 149 154
3 149 43 148
3 154 148 44
3 148 154 149
3 43 103 151
3 103 7 150
3 151 150 42
3 150 151 103
3 44 153 152
3 153 42 168
3 152 168 12
3 168 152 153
3 42 153 151
3 153 44 148
3 151 148 43
3 148 151 153
3 6 154 137
3 154 44 158
3 137 158 38
3 158 137 154
3 44 152 159
3 152 12 155
3 159 155 56
3 155 159 152
3 38 157 156
3 157 56 199
3 156 199 11
3 199 156 157
3 56 157 159
3 157 38 158
3 159 158 44
3 158 159 157
3 7 161 166
3 161 46 160
3 166 160 47
3 160 166 161
3 46 116 163
3 116 8 162
3 163 162 45
3 162 163 116
3 47 165 164
3 165 45 181
3 164 181 13
3 181 164 165
3 45 165 163
3 165 47 160
3 163 160 46
3 160 163 165
3 7 166 150
3 166 47 170
3 150 170 42
3 170 150 166
3 47 164 171
3 164 13 167
3 171 167 59
3 167 171 164
3 42 169 168
3 169 59 211
3 168 211 12
3 211 168 169
3 59 169 171
3 169 42 170
3 171 170 47
3 170 171 169
3 8 173 179
3 173 49 172
3 179 172 50
3 172 179 173
3 49 132 175
3 132 9 174
3 175 174 48
3 174 175 132
3 50 178 177
3 178 48 176
3 177 176 14
3 176 177 178
3 48 178 175
3 178 50 172
3 175 172 49
3 172 175 178
3 8 179 162
3 179 50 183
3 162 183 45
3 183 162 179
3 50 177 184
3 177 14 180
3 184 180 62
3 180 184 177
3 45 182 181
3 182 62 223
3 181 223 13
3 223 181 182
3 62 182 184
3 182 45 183
3 184 183 50
3 183 184 182
3 10 186 192
3 186 52 185
3 192 185 54
3 185 192 186
3 52 143 188
3 143 11 187
3 188 187 51
3 187 188 143
3 54 190 189
3 190 51 206
3 189 206 16
3 206 189 190
3 51 190 188
3 190 54 185
3 188 185 52
3 185 188 190
3 10 192 191
3 192 54 196
3 191 196 53
3 196 191 192
3 54 189 197
3 189 16 193
3 197 193 66
3 193 197 189
3 53 195 194
3 195 66 236
3 194 236 15
3 236 194 195
3 66 195 197
3 195 53 196
3 197 196 54
3 196 197 195
3 11 199 204
3 199 56 198
3 204 198 57
3 198 204 199
3 56 155 201
3 155 12 200
3 201 200 55
3 200 201 155
3 57 203 202
3 203 55 218
3 202 218 17
3 218 202 203
3 55 203 201
3 203 57 198
3 201 198 56
3 198 201 203
3 11 204 187
3 204 57 208
3 187 208 51
3 208 187 204
3 57 202 209
3 202 17 205
3 209 205 70
3 205 209 202
3 51 207 206
3 207 70 250
3 206 250 16
3 250 206 207
3 70 207 209
3 207 51 208
3 209 208 57
3 208 209 207
3 12 211 216
3 211 59 210
3 216 210 60
3 210 216 211
3 59 167 213
3 167 13 212
3 213 212 58
3 212 213 167
3 60 215 214
3 215 58 231
3 214 231 18
3 231 214 215
3 58 215 213
3 215 60 210
3 213 210 59
3 210 213 215
3 12 216 200
3 216 60 220
3 200 220 55
3 220 200 216
3 60 214 221
3 214 18 217
3 221 217 74
3 217 221 214
3 55 219 218
3 219 74 263
3 218 263 17
3 263 218 219
3 74 219 221
3 219 55 220
3 221 220 60
3 220 221 219
3 13 223 229
3 223 62 222
3 229 222 63
3 222 229 223
3 62 180 225
3 180 14 224
3 225 224 61
3 224 225 180
3 63 228 227
3 228 61 226
3 227 226 19
3 226 227 228
3 61 228 225
3 228 63 222
3 225 222 62
3 222 225 228
3 13 229 212
3 229 63 233
3 212 233 58
3 233 212 229
3 63 227 234
3 227 19 230
3 234 230 78
3 230 234 227
3 58 232 231
3 232 78 276
3 231 276 18
3 276 231 232
3 78 232 234
3 232 58 233
3 234 233 63
3 233 234 232
3 15 236 235
3 236 66 240
3 235 240 65
3 240 235 236
3 66 193 238
3 193 16 237
3 238 237 64
3 237 238 193
3 65 241 239
3 241 64 244
3 239 244 20
3 244 239 241
3 64 241 238
3 241 65 240
3 238 240 66
3 240 238 241
3 20 244 243
3 244 64 242
3 243 242 68
3 242 243 244
3 64 237 247
3 237 16 245
3 247 245 67
3 245 247 237
3 68 248 246
3 248 67 259
3 246 259 21
3 259 246 248
3 67 248 247
3 248 68 242
3 247 242 64
3 242 247 248
3 16 250 255
3 250 70 249
3 255 249 72
3 249 255 250
3 70 205 252
3 205 17 251
3 252 251 69
3 251 252 205
3 72 254 253
3 254 69 272
3 253 272 22
3 272 253 254
3 69 254 252
3 254 72 249
3 252 249 70
3 249 252 254
3 16 255 245
3 255 72 261
3 245 261 67
3 261 245 255
3 72 253 257
3 253 22 256
3 257 256 71
3 256 257 253
3 67 260 259
3 260 71 258
3 259 258 21
3 258 259 260
3 71 260 257
3 260 67 261
3 257 261 72
3 261 257 260
3 17 263 268
3 263 74 262
3 268 262 76
3 262 268 263
3 74 217 265
3 217 18 264
3 265 264 73
3 264 265 217
3 76 267 266
3 267 73 286
3 266 286 23
3 286 266 267
3 73 267 265
3 267 76 262
3 265 262 74
3 262 265 267
3 17 268 251
3 268 76 274
3 251 274 69
3 274 251 268
3 76 266 270
3 266 23 269
3 270 269 75
3 269 270 266
3 69 273 272
3 273 75 271
3 272 271 22
3 271 272 273
3 75 273 270
3 273 69 274
3 270 274 76
3 274 270 273
3 18 276 282
3 276 78 275
3 282 275 80
3 275 282 276
3 78 230 278
3 230 19 277
3 278 277 77
3 277 278 230
3 80 281 280
3 281 77 279
3 280 279 24
3 279 280 281
3 77 281 278
3 281 80 275
3 278 275 78
3 275 278 281
3 18 282 264
3 282 80 288
3 264 288 73
3 288 264 282
3 80 280 284
3 280 24 283
3 284 283 79
3 283 284 280
3 73 287 286
3 287 79 285
3 286 285 23
3 285 286 287
3 79 287 284
3 287 73 288
3 284 288 80
3 288 284 287
2 0 82
2 82 26
2 26 85
2 85 1
2 27 88
2 88 0
2 5 91
2 91 27
2 1 96
2 96 30
2 30 99
2 99 2
2 2 109
2 109 33
2 33 112
2 112 3
2 3 121
2 121 36
2 36 124
2 124 4
2 4 130
2 130 37
2 37 131
2 131 9
2 40 141
2 141 5
2 10 144
2 144 40
2 9 174
2 174 48
2 48 176
2 176 14
2 53 191
2 191 10
2 15 194
2 194 53
2 14 224
2 224 61
2 61 226
2 226 19
2 65 235
2 235 15
2 20 239
2 239 65
2 68 243
2 243 20
2 21 246
2 246 68
2 22 256
2 256 71
2 71 258
2 258 21
2 23 269
2 269 75
2 75 271
2 271 22
2 19 277
2 277 77
2 77 279
2 279 24
2 24 283
2 283 79
2 79 285
2 285 23

CELL_TYPES 576
5 5 5 5 5 5 5 5 5 5 5 5 5 5 5 5 5 5 5 5 5 5 5 5 5 5 5 5 5 5 5 5 5 5 5 5 5 5 5 5 5 5 5 5 5 5 5 5 5 5 5 5 5 5 5 5 5 5 5 5 5 5 5 5 5 5 5 5 5 5 5 5 5 5 5 5 5 5 5 5 5 5 5 5 5 5 5 5 5 5 5 5 5 5 5 5 5 5 5 5 5 5 5 5 5 5 5 5 5 5 5 5 5 5 5 5 5 5 5 5 5 5 5 5 5 5 5 5 5 5 5 5 5 5 5 5 5 5 5 5 5 5 5 5 5 5 5 5 5 5 5 5 5 5 5 5 5 5 5 5 5 5 5 5 5 5 5 5 5 5 5 5 5 5 5 5 5 5 5 5 5 5 5 5 5 5 5 5 5 5 5 5 5 5 5 5 5 5 5 5 5 5 5 5 5 5 5 5 5 5 5 5 5 5 5 5 5 5 5 5 5 5 5 5 5 5 5 5 5 5 5 5 5 5 5 5 5 5 5 5 5 5 5 5 5 5 5 5 5 5 5 5 5 5 5 5 5 5 5 5 5 5 5 5 5 5 5 5 5 5 5 5 5 5 5 5 5 5 5 5 5 5 5 5 5 5 5 5 5 5 5 5 5 5 5 5 5 5 5 5 5 5 5 5 5 5 5 5 5 5 5 5 5 5 5 5 5 5 5 5 5 5 5 5 5 5 5 5 5 5 5 5 5 5 5 5 5 5 5 5 5 5 5 5 5 5 5 5 5 5 5 5 5 5 5 5 5 5 5 5 5 5 5 5 5 5 5 5 5 5 5 5 5 5 5 5 5 5 5 5 5 5 5 5 5 5 5 5 5 5 5 5 5 5 5 5 5 5 5 5 5 5 5 5 5 5 5 5 5 5 5 5 5 5 5 5 5 5 5 5 5 5 5 5 5 5 5 5 5 5 5 5 5 5 5 5 5 5 5 5 5 5 5 5 5 5 5 5 5 5 5 5 5 5 5 5 5 5 5 5 5 5 5 5 5 5 5 5 5 5 5 5 5 5 5 5 5 5 5 5 5 5 5 5 5 5 5 5 5 5 5 5 5 5 5 5 5 5 5 5 5 5 5 5 5 5 5 5 5 5 5 5 3 3 3 3 3 3 3 3 3 3 3 3 3 3 3 3 3 3 3 3 3 3 3 3 3 3 3 3 3 3 3 3 3 3 3 3 3 3 3 3 3 3 3 3 3 3 3 3 3 3 3 3 3 3 3 3 3 3 3 3 3 3 3 3 
CELL_DATA 576
Scalars  Label int 1
LOOKUP_TABLE FreeFempp_table
0
0
0
0
0
0
0
0
0
0
0
0
0
0
0
0
0
0
0
0
0
0
0
0
0
0
0
0
0
0
0
0
0
0
0
0
0
0
0
0
0
0
0
0
0
0
0
0
0
0
0
0
0
0
0
0
0
0
0
0
0
0
0
0
0
0
0
0
0
0
0
0
0
0
0
0
0
0
0
0
0
0
0
0
0
0
0
0
0
0
0
0
0
0
0
0
0
0
0
0
0
0
0
0
0
0
0
0
0
0
0
0
0
0
0
0
0
0
0
0
0
0
0
0
0
0
0
0
0
0
0
0
0
0
0
0
0
0
0
0
0
0
0
0
0
0
0
0
0
0
0
0
0
0
0
0
0
0
0
0
0
0
0
0
0
0
0
0
0
0
0
0
0
0
0
0
0
0
0
0
0
0
0
0
0
0
0
0
0
0
0
0
0
0
0
0
0
0
0
0
0
0
0
0
0
0
0
0
0
0
0
0
0
0
0
0
0
0
0
0
0
0
0
0
0
0
0
0
0
0
0
0
0
0
0
0
0
0
0
0
0
0
0
0
0
0
0
0
0
0
0
0
0
0
0
0
0
0
0
0
0
0
0
0
0
0
0
0
0
0
0
0
0
0
0
0
0
0
0
0
0
0
0
0
0
0
0
0
0
0
0
0
0
0
0
0
0
0
0
0
0
0
0
0
0
0
0
0
0
0
0
0
0
0
0
0
0
0
0
0
0
0
0
0
0
0
0
0
0
0
0
0
0
0
0
0
0
0
0
0
0
0
0
0
0
0
0
0
0
0
0
0
0
0
0
0
0
0
0
0
0
0
0
0
0
0
0
0
0
0
0
0
0
0
0
0
0
0
0
0
0
0
0
0
0
0
0
0
0
0
0
0
0
0
0
0
0
0
0
0
0
0
0
0
0
0
0
0
0
0
0
0
0
0
0
0
0
0
0
0
0
0
0
0
0
0
0
0
0
0
0
0
0
0
0
0
0
0
0
0
0
0
0
0
0
0
0
0
0
0
0
0
0
0
0
0
0
0
0
0
0
0
0
0
0
0
0
0
0
0
0
0
0
0
0
0
0
0
0
0
0
0
0
0
0
0
0
0
0
0
0
0
0
0
0
0
0
0
0
0
0
0
0
0
0
0
0
0
0
0
0
0
1
1
1
1
4
4
4
4
1
1
1
1
1
1
1
1
1
1
1
1
2
2
2
2
4
4
4
4
2
2
2
2
4
4
4
4
2
2
2
2
4
4
4
4
3
3
3
3
3
3
3
3
3
3
3
3
2
2
2
2
3
3
3
3

LOOKUP_TABLE FreeFempp_table 5
1.00000000 0.00000000 0.00000000 1.00000000
1.00000000 1.00000000 0.00000000 1.00000000
1.00000000 0.00000000 1.00000000 1.00000000
0.00000000 1.00000000 0.00000000 1.00000000
0.00000000 1.00000000 1.00000000 1.00000000

FIELD FieldData 1
Pressure 1 576 float
1.30664378e-01 3.21826845e-01 3.18525732e-01 2.58435309e-01 5.00641882e-01 6.60224676e-01 6.53697312e-01 6.08092368e-01 4.86349553e-01 6.41551793e-01 6.23551607e-01 5.87319553e-01 6.00329936e-01 4.36028361e-01 4.41739619e-01 4.95620131e-01 6.52523041e-02 2.55026072e-01 6.43466264e-02 1.29274562e-01 4.26517248e-01 5.68858385e-01 4.13053334e-01 4.72647846e-01 6.28829524e-02 2.41473675e-01 6.08365946e-02 1.23133719e-01 3.03639382e-01 1.26779407e-01 3.12502712e-01 2.49403358e-01 7.94435918e-01 8.98116171e-01 8.89378667e-01 8.65203857e-01 9.67280567e-01 9.99270916e-01 9.89635587e-01 9.90583777e-01 9.40292180e-01 9.71462965e-01 9.44406509e-01 9.57229078e-01 9.78201568e-01 9.34210122e-01 9.46074247e-01 9.57916796e-01 7.51080811e-01 8.54309380e-01 7.41570830e-01 7.86655784e-01 9.14146066e-01 9.27357793e-01 8.85584831e-01 9.14070189e-01 7.25565374e-01 8.09767604e-01 7.02820539e-01 7.50498176e-01 8.48595202e-01 7.72103488e-01 8.72976482e-01 8.35922539e-01 9.92857516e-01 9.48285639e-01 9.39194024e-01 9.65138197e-01 8.67264688e-01 7.52903402e-01 7.45661378e-01 7.92709470e-01 8.43248427e-01 7.32017457e-01 7.11730957e-01 7.66145706e-01 7.82853067e-01 8.85023355e-01 8.96154583e-01 8.58955204e-01 9.97021377e-01 9.53133583e-01 9.84592259e-01 9.83315051e-01 8.66126776e-01 7.42358744e-01 8.39191020e-01 8.19847643e-01 9.63514984e-01 9.03714597e-01 9.33480620e-01 9.38437045e-01 8.96385431e-01 9.65289593e-01 9.22003508e-01 9.32758391e-01 6.60247803e-01 5.00655890e-01 6.53792143e-01 6.08133256e-01 3.21835011e-01 1.30668268e-01 3.18559676e-01 2.58448422e-01 6.41732574e-01 4.86474872e-01 6.23884141e-01 5.87520957e-01 4.36090797e-01 6.00433230e-01 4.41762656e-01 4.95676011e-01 5.69261670e-01 4.26670581e-01 4.13433671e-01 4.72944826e-01 2.55064458e-01 6.52563125e-02 6.43581748e-02 1.29290476e-01 2.41781473e-01 6.29180148e-02 6.09399118e-02 1.23272829e-01 1.26825675e-01 3.03893089e-01 3.12593251e-01 2.49514222e-01 1.18323870e-01 2.91901559e-01 2.77364910e-01 2.31244877e-01 4.54466105e-01 5.99636555e-01 5.69965243e-01 5.44971108e-01 4.05224353e-01 5.34807324e-01 4.94498879e-01 4.81753588e-01 5.15845656e-01 3.74449968e-01 3.95652264e-01 4.31923479e-01 5.82109876e-02 2.18795955e-01 5.50267659e-02 1.12380512e-01 3.49643588e-01 4.43022460e-01 3.21471512e-01 3.74623686e-01 5.13134003e-02 1.87723190e-01 4.71065976e-02 9.73197371e-02 2.40451917e-01 1.05356850e-01 2.60160327e-01 2.04242140e-01 7.21771121e-01 8.16159546e-01 7.75886595e-01 7.75884271e-01 8.79171550e-01 9.08385217e-01 8.63640845e-01 8.88635039e-01 7.84440935e-01 8.10580671e-01 7.49711514e-01 7.85996437e-01 8.41367483e-01 8.03397417e-01 8.48570883e-01 8.35830212e-01 6.73369288e-01 7.34540641e-01 6.37444079e-01 6.86113775e-01 7.50486255e-01 7.23052919e-01 6.90344870e-01 7.25494564e-01 5.95380485e-01 6.31095290e-01 5.47582150e-01 5.95385909e-01 6.73385024e-01 6.43850744e-01 7.28143036e-01 6.86122835e-01 9.02677119e-01 8.62262607e-01 8.19861054e-01 8.66047263e-01 7.88682163e-01 6.84744358e-01 6.51187658e-01 7.11520255e-01 7.03982711e-01 6.11331344e-01 5.65570116e-01 6.29628778e-01 6.73828483e-01 7.61584103e-01 8.04254711e-01 7.49946713e-01 8.94536734e-01 8.20052803e-01 8.46991539e-01 8.58249247e-01 7.11574197e-01 5.79355419e-01 6.54706657e-01 6.51231706e-01 7.91288793e-01 7.04884887e-01 7.27962434e-01 7.45105386e-01 7.11852968e-01 8.05557668e-01 7.69564390e-01 7.66159713e-01 5.54459631e-01 4.02870387e-01 3.83294761e-01 4.48553920e-01 2.35823289e-01 5.97445220e-02 5.69171272e-02 1.17292024e-01 2.10844457e-01 5.35206534e-02 4.95984443e-02 1.04025446e-01 1.11211985e-01 2.73363352e-01 2.88466960e-01 2.24449009e-01 5.91406882e-01 4.24940616e-01 5.60157299e-01 5.27382612e-01 2.55563825e-01 9.58239585e-02 2.35279277e-01 1.95177525e-01 5.23470581e-01 3.65555733e-01 4.81724381e-01 4.58156705e-01 3.33105683e-01 4.95169103e-01 3.59952003e-01 3.97172898e-01 8.83480534e-02 2.18432054e-01 1.94328055e-01 1.69402555e-01 3.40418816e-01 4.49429780e-01 4.00044769e-01 4.00029391e-01 2.62649924e-01 3.46859664e-01 2.90477574e-01 3.03079784e-01 3.53208601e-01 2.56186128e-01 2.90210158e-01 3.02954346e-01 4.24483195e-02 1.49478614e-01 3.73905450e-02 7.85367489e-02 2.19816208e-01 2.50242710e-01 1.81603611e-01 2.20029831e-01 3.20080295e-02 1.05981156e-01 2.64030863e-02 5.69636673e-02 1.41134128e-01 6.80140853e-02 1.68431938e-01 1.28222406e-01 5.41186631e-01 6.12139881e-01 5.44999063e-01 5.69988906e-01 6.59558296e-01 6.81618989e-01 6.06958628e-01 6.53142691e-01 5.09318829e-01 5.26449203e-01 4.40865844e-01 4.95175689e-01 5.76938987e-01 5.50753117e-01 6.23552442e-01 5.87267339e-01 4.94511843e-01 5.03396273e-01 4.36691910e-01 4.81780261e-01 4.72650141e-01 4.08640146e-01 3.89997482e-01 4.26464438e-01 3.74714613e-01 3.56410861e-01 3.09229851e-01 3.49769711e-01 3.95691812e-01 4.17757064e-01 4.72614527e-01 4.31970030e-01 6.77474082e-01 6.47282660e-01 5.76475441e-01 6.36818290e-01 5.92204690e-01 5.14355600e-01 4.58184659e-01 5.23498297e-01 4.57655221e-01 3.97598684e-01 3.33180577e-01 3.97237688e-01 4.62596923e-01 5.22654533e-01 5.91530502e-01 5.27471364e-01 6.57622099e-01 5.62615454e-01 5.80944836e-01 6.03314817e-01 4.48741764e-01 3.28049183e-01 3.70503217e-01 3.83427918e-01 4.98668760e-01 3.98709536e-01 4.11585778e-01 4.38323647e-01 4.18929845e-01 5.23341417e-01 5.00112891e-01 4.82990444e-01 4.16722894e-01 3.03041101e-01 2.70055473e-01 3.30411524e-01 1.77622601e-01 4.51959409e-02 4.03576083e-02 8.66964832e-02 1.37562186e-01 3.51304188e-02 2.95646191e-02 6.60309196e-02 7.67333657e-02 1.88116491e-01 2.12722927e-01 1.58355251e-01 4.35333252e-01 2.92083263e-01 3.84747237e-01 3.71272922e-01 1.61697581e-01 5.46917655e-02 1.33719772e-01 1.15443364e-01 3.30453783e-01 2.07378924e-01 2.72974759e-01 2.70112365e-01 1.96620494e-01 3.22245538e-01 2.34467834e-01 2.50940681e-01 2.35238690e-02 9.16227251e-02 1.75593123e-02 4.25569825e-02 1.56127289e-01 2.14516059e-01 1.15250923e-01 1.61189154e-01 1.13313217e-02 4.31195535e-02 4.90675354e-03 1.78397931e-02 7.39421472e-02 3.04311961e-02 1.03949733e-01 6.78432360e-02 4.90265992e-03 4.29188460e-02 1.11805387e-02 1.77046172e-02 1.14329167e-01 2.12059543e-01 1.50075719e-01 1.57992557e-01 1.69478413e-02 8.64949599e-02 2.19947379e-02 4.03217413e-02 9.97219309e-02 2.96522547e-02 7.29479119e-02 6.60869256e-02 2.78477550e-01 3.14971954e-01 2.31223479e-01 2.77434111e-01 3.39502901e-01 3.51033390e-01 2.57823586e-01 3.18167418e-01 1.56702563e-01 1.62163496e-01 6.50373250e-02 1.29015610e-01 2.24642307e-01 2.14275122e-01 3.03590894e-01 2.49278799e-01 2.40825474e-01 1.95783377e-01 1.70030683e-01 2.04486147e-01 1.22977227e-01 3.22838053e-02 3.06862630e-02 6.27629906e-02 9.75527465e-02 2.79403292e-02 2.41985116e-02 5.13485968e-02 5.81153668e-02 1.28494218e-01 1.45288840e-01 1.12307593e-01 3.49080116e-01 3.33707184e-01 2.45263591e-01 3.10583770e-01 3.05502534e-01 2.65548021e-01 1.95341304e-01 2.55693972e-01 1.41544148e-01 1.23197094e-01 4.97232527e-02 1.04201555e-01 1.80853993e-01 2.04082817e-01 2.88690180e-01 2.24622712e-01 3.20535392e-01 2.19461739e-01 2.26401880e-01 2.56472915e-01 1.17471367e-01 2.63955761e-02 2.96473689e-02 5.70148528e-02 1.30118087e-01 3.17583717e-02 3.26480381e-02 6.48203045e-02 6.21121414e-02 1.61406234e-01 1.54445142e-01 1.26221731e-01 2.15372235e-01 1.56874567e-01 1.15596808e-01 1.61811963e-01 9.22091678e-02 2.37130951e-02 1.76287666e-02 4.28225435e-02 4.32081148e-02 1.13559561e-02 4.91576269e-03 1.78750008e-02 3.05255540e-02 7.41392449e-02 1.04447491e-01 6.80704191e-02 2.12858781e-01 1.14653617e-01 1.50663674e-01 1.58537760e-01 4.30043787e-02 4.91159922e-03 1.12028746e-02 1.77379623e-02 8.69189948e-02 1.70021430e-02 2.21270472e-02 4.05146219e-02 2.97300853e-02 1.00103199e-01 7.31242746e-02 6.62737638e-02 1.30664378e-01 3.21826845e-01 5.00641882e-01 6.60224676e-01 6.43466264e-02 6.52523041e-02 6.08365946e-02 6.28829524e-02 7.94435918e-01 8.98116171e-01 9.67280567e-01 9.99270916e-01 9.92857516e-01 9.48285639e-01 8.67264688e-01 7.52903402e-01 6.60247803e-01 5.00655890e-01 3.21835011e-01 1.30668268e-01 6.52563125e-02 6.43581748e-02 6.29180148e-02 6.09399118e-02 5.50267659e-02 5.82109876e-02 4.71065976e-02 5.13134003e-02 5.97445220e-02 5.69171272e-02 5.35206534e-02 4.95984443e-02 3.73905450e-02 4.24483195e-02 2.64030863e-02 3.20080295e-02 4.51959409e-02 4.03576083e-02 3.51304188e-02 2.95646191e-02 1.75593123e-02 2.35238690e-02 4.90675354e-03 1.13313217e-02 1.11805387e-02 4.90265992e-03 2.19947379e-02 1.69478413e-02 3.22838053e-02 3.06862630e-02 2.79403292e-02 2.41985116e-02 2.63955761e-02 2.96473689e-02 3.17583717e-02 3.26480381e-02 2.37130951e-02 1.76287666e-02 1.13559561e-02 4.91576269e-03 4.91159922e-03 1.12028746e-02 1.70021430e-02 2.21270472e-02 
POINT_DATA 289
FIELD FieldData 2
Velocity 3 289 float