# vtk DataFile Version 2.0
./pics/Solution_1_6.vtk, Created by Freefem++ 
ASCII
DATASET UNSTRUCTURED_GRID
POINTS 289 float
0 0 0
0.25 0 0
0.5 0 0
0.75 0 0
1 0 0
0 0.25 0
0.25 0.25 0
0.5 0.25 0
0.75 0.25 0
1 0.25 0
0 0.5 0
0.25 0.5 0
0.5 0.5 0
0.75 0.5 0
1 0.5 0
0 0.75 0
0.25 0.75 0
0.5 0.75 0
0.75 0.75 0
1 0.75 0
0 1 0
0.25 1 0
0.5 1 0
0.75 1 0
1 1 0
0.25 0.125 0
0.125 0 0
0 0.125 0
0.125 0.125 0
0.5 0.125 0
0.375 0 0
0.375 0.125 0
0.75 0.125 0
0.625 0 0
0.625 0.125 0
0.875 0.125 0
0.875 0 0
1 0.125 0
0.25 0.375 0
0.125 0.25 0
0 0.375 0
0.125 0.375 0
0.5 0.375 0
0.375 0.25 0
0.375 0.375 0
0.75 0.375 0
0.625 0.25 0
0.625 0.375 0
1 0.375 0
0.875 0.25 0
0.875 0.375 0
0.25 0.625 0
0.125 0.5 0
0 0.625 0
0.125 0.625 0
0.5 0.625 0
0.375 0.5 0
0.375 0.625 0
0.75 0.625 0
0.625 0.5 0
0.625 0.625 0
1 0.625 0
0.875 0.5 0
0.875 0.625 0
0.125 0.875 0
0 0.875 0
0.125 0.75 0
0.25 0.875 0
0.125 1 0
0.5 0.875 0
0.375 0.75 0
0.375 1 0
0.375 0.875 0
0.75 0.875 0
0.625 0.75 0
0.625 1 0
0.625 0.875 0
1 0.875 0
0.875 0.75 0
0.875 1 0
0.875 0.875 0
0.125 0.0625 0
0.0625 0 0
0.25 0.0625 0
0.1875 0.0625 0
0.1875 0 0
0.1875 0.1875 0
0.1875 0.125 0
0 0.0625 0
0.0625 0.0625 0
0.1875 0.25 0
0 0.1875 0
0.0625 0.1875 0
0.0625 0.125 0
0.125 0.1875 0
0.375 0.0625 0
0.3125 0 0
0.5 0.0625 0
0.4375 0.0625 0
0.4375 0 0
0.4375 0.1875 0
0.4375 0.125 0
0.3125 0.0625 0
0.4375 0.25 0
0.25 0.1875 0
0.3125 0.1875 0
0.3125 0.125 0
0.375 0.1875 0
0.625 0.0625 0
0.5625 0 0
0.75 0.0625 0
0.6875 0.0625 0
0.6875 0 0
0.6875 0.1875 0
0.6875 0.125 0
0.5625 0.0625 0
0.6875 0.25 0
0.5 0.1875 0
0.5625 0.1875 0
0.5625 0.125 0
0.625 0.1875 0
0.8125 0 0
0.9375 0.0625 0
0.875 0.0625 0
0.9375 0 0
0.75 0.1875 0
0.8125 0.125 0
0.8125 0.0625 0
0.875 0.1875 0
0.8125 0.1875 0
1 0.0625 0
1 0.1875 0
0.9375 0.25 0
0.9375 0.125 0
0.9375 0.1875 0
0.125 0.3125 0
0.0625 0.25 0
0.25 0.3125 0
0.1875 0.3125 0
0.1875 0.4375 0
0.1875 0.375 0
0 0.3125 0
0.0625 0.3125 0
0.1875 0.5 0
0 0.4375 0
0.0625 0.4375 0
0.0625 0.375 0
0.125 0.4375 0
0.375 0.3125 0
0.3125 0.25 0
0.5 0.3125 0
0.4375 0.3125 0
0.4375 0.4375 0
0.4375 0.375 0
0.3125 0.3125 0
0.4375 0.5 0
0.25 0.4375 0
0.3125 0.4375 0
0.3125 0.375 0
0.375 0.4375 0
0.625 0.3125 0
0.5625 0.25 0
0.75 0.3125 0
0.6875 0.3125 0
0.6875 0.4375 0
0.6875 0.375 0
0.5625 0.3125 0
0.6875 0.5 0
0.5 0.4375 0
0.5625 0.4375 0
0.5625 0.375 0
0.625 0.4375 0
0.875 0.3125 0
0.8125 0.25 0
1 0.3125 0
0.9375 0.3125 0
1 0.4375 0
0.9375 0.4375 0
0.9375 0.375 0
0.8125 0.3125 0
0.9375 0.5 0
0.75 0.4375 0
0.8125 0.4375 0
0.8125 0.375 0
0.875 0.4375 0
0.125 0.5625 0
0.0625 0.5 0
0.25 0.5625 0
0.1875 0.5625 0
0.1875 0.6875 0
0.1875 0.625 0
0 0.5625 0
0.0625 0.5625 0
0.1875 0.75 0
0 0.6875 0
0.0625 0.6875 0
0.0625 0.625 0
0.125 0.6875 0
0.375 0.5625 0
0.3125 0.5 0
0.5 0.5625 0
0.4375 0.5625 0
0.4375 0.6875 0
0.4375 0.625 0
0.3125 0.5625 0
0.4375 0.75 0
0.25 0.6875 0
0.3125 0.6875 0
0.3125 0.625 0
0.375 0.6875 0
0.625 0.5625 0
0.5625 0.5 0
0.75 0.5625 0
0.6875 0.5625 0
0.6875 0.6875 0
0.6875 0.625 0
0.5625 0.5625 0
0.6875 0.75 0
0.5 0.6875 0
0.5625 0.6875 0
0.5625 0.625 0
0.625 0.6875 0
0.875 0.5625 0
0.8125 0.5 0
1 0.5625 0
0.9375 0.5625 0
1 0.6875 0
0.9375 0.6875 0
0.9375 0.625 0
0.8125 0.5625 0
0.9375 0.75 0
0.75 0.6875 0
0.8125 0.6875 0
0.8125 0.625 0
0.875 0.6875 0
0 0.8125 0
0.0625 0.75 0
0.1875 0.8125 0
0.125 0.8125 0
0 0.9375 0
0.0625 0.8125 0
0.0625 0.875 0
0.125 0.9375 0
0.0625 1 0
0.0625 0.9375 0
0.25 0.8125 0
0.1875 1 0
0.1875 0.875 0
0.1875 0.9375 0
0.375 0.8125 0
0.3125 0.75 0
0.5 0.8125 0
0.4375 0.8125 0
0.4375 0.9375 0
0.4375 0.875 0
0.3125 0.8125 0
0.4375 1 0
0.375 0.9375 0
0.3125 1 0
0.25 0.9375 0
0.3125 0.9375 0
0.3125 0.875 0
0.625 0.8125 0
0.5625 0.75 0
0.75 0.8125 0
0.6875 0.8125 0
0.6875 0.9375 0
0.6875 0.875 0
0.5625 0.8125 0
0.6875 1 0
0.625 0.9375 0
0.5625 1 0
0.5 0.9375 0
0.5625 0.9375 0
0.5625 0.875 0
0.875 0.8125 0
0.8125 0.75 0
1 0.8125 0
0.9375 0.8125 0
1 0.9375 0
0.9375 0.9375 0
0.9375 0.875 0
0.8125 0.8125 0
0.9375 1 0
0.875 0.9375 0
0.8125 1 0
0.75 0.9375 0
0.8125 0.9375 0
0.8125 0.875 0

CELLS 576 2240
3 0 82 89
3 82 26 81
3 89 81 28
3 81 89 82
3 26 85 84
3 85 1 83
3 84 83 25
3 83 84 85
3 28 87 86
3 87 25 104
3 86 104 6
3 104 86 87
3 25 87 84
3 87 28 81
3 84 81 26
3 81 84 87
3 0 89 88
3 89 28 93
3 88 93 27
3 93 88 89
3 28 86 94
3 86 6 90
3 94 90 39
3 90 94 86
3 27 92 91
3 92 39 136
3 91 136 5
3 136 91 92
3 39 92 94
3 92 27 93
3 94 93 28
3 93 94 92
3 1 96 102
3 96 30 95
3 102 95 31
3 95 102 96
3 30 99 98
3 99 2 97
3 98 97 29
3 97 98 99
3 31 101 100
3 101 29 117
3 100 117 7
3 117 100 101
3 29 101 98
3 101 31 95
3 98 95 30
3 95 98 101
3 1 102 83
3 102 31 106
3 83 106 25
3 106 83 102
3 31 100 107
3 100 7 103
3 107 103 43
3 103 107 100
3 25 105 104
3 105 43 149
3 104 149 6
3 149 104 105
3 43 105 107
3 105 25 106
3 107 106 31
3 106 107 105
3 2 109 115
3 109 33 108
3 115 108 34
3 108 115 109
3 33 112 111
3 112 3 110
3 111 110 32
3 110 111 112
3 34 114 113
3 114 32 125
3 113 125 8
3 125 113 114
3 32 114 111
3 114 34 108
3 111 108 33
3 108 111 114
3 2 115 97
3 115 34 119
3 97 119 29
3 119 97 115
3 34 113 120
3 113 8 116
3 120 116 46
3 116 120 113
3 29 118 117
3 118 46 161
3 117 161 7
3 161 117 118
3 46 118 120
3 118 29 119
3 120 119 34
3 119 120 118
3 3 121 110
3 121 36 127
3 110 127 32
3 127 110 121
3 36 124 123
3 124 4 122
3 123 122 35
3 122 123 124
3 32 126 125
3 126 35 129
3 125 129 8
3 129 125 126
3 35 126 123
3 126 32 127
3 123 127 36
3 127 123 126
3 8 129 173
3 129 35 128
3 173 128 49
3 128 173 129
3 35 122 133
3 122 4 130
3 133 130 37
3 130 133 122
3 49 134 132
3 134 37 131
3 132 131 9
3 131 132 134
3 37 134 133
3 134 49 128
3 133 128 35
3 128 133 134
3 5 136 142
3 136 39 135
3 142 135 41
3 135 142 136
3 39 90 138
3 90 6 137
3 138 137 38
3 137 138 90
3 41 140 139
3 140 38 156
3 139 156 11
3 156 139 140
3 38 140 138
3 140 41 135
3 138 135 39
3 135 138 140
3 5 142 141
3 142 41 146
3 141 146 40
3 146 141 142
3 41 139 147
3 139 11 143
3 147 143 52
3 143 147 139
3 40 145 144
3 145 52 186
3 144 186 10
3 186 144 145
3 52 145 147
3 145 40 146
3 147 146 41
3 146 147 145
3 6 149 154
3 149 43 148
3 154 148 44
3 148 154 149
3 43 103 151
3 103 7 150
3 151 150 42
3 150 151 103
3 44 153 152
3 153 42 168
3 152 168 12
3 168 152 153
3 42 153 151
3 153 44 148
3 151 148 43
3 148 151 153
3 6 154 137
3 154 44 158
3 137 158 38
3 158 137 154
3 44 152 159
3 152 12 155
3 159 155 56
3 155 159 152
3 38 157 156
3 157 56 199
3 156 199 11
3 199 156 157
3 56 157 159
3 157 38 158
3 159 158 44
3 158 159 157
3 7 161 166
3 161 46 160
3 166 160 47
3 160 166 161
3 46 116 163
3 116 8 162
3 163 162 45
3 162 163 116
3 47 165 164
3 165 45 181
3 164 181 13
3 181 164 165
3 45 165 163
3 165 47 160
3 163 160 46
3 160 163 165
3 7 166 150
3 166 47 170
3 150 170 42
3 170 150 166
3 47 164 171
3 164 13 167
3 171 167 59
3 167 171 164
3 42 169 168
3 169 59 211
3 168 211 12
3 211 168 169
3 59 169 171
3 169 42 170
3 171 170 47
3 170 171 169
3 8 173 179
3 173 49 172
3 179 172 50
3 172 179 173
3 49 132 175
3 132 9 174
3 175 174 48
3 174 175 132
3 50 178 177
3 178 48 176
3 177 176 14
3 176 177 178
3 48 178 175
3 178 50 172
3 175 172 49
3 172 175 178
3 8 179 162
3 179 50 183
3 162 183 45
3 183 162 179
3 50 177 184
3 177 14 180
3 184 180 62
3 180 184 177
3 45 182 181
3 182 62 223
3 181 223 13
3 223 181 182
3 62 182 184
3 182 45 183
3 184 183 50
3 183 184 182
3 10 186 192
3 186 52 185
3 192 185 54
3 185 192 186
3 52 143 188
3 143 11 187
3 188 187 51
3 187 188 143
3 54 190 189
3 190 51 206
3 189 206 16
3 206 189 190
3 51 190 188
3 190 54 185
3 188 185 52
3 185 188 190
3 10 192 191
3 192 54 196
3 191 196 53
3 196 191 192
3 54 189 197
3 189 16 193
3 197 193 66
3 193 197 189
3 53 195 194
3 195 66 236
3 194 236 15
3 236 194 195
3 66 195 197
3 195 53 196
3 197 196 54
3 196 197 195
3 11 199 204
3 199 56 198
3 204 198 57
3 198 204 199
3 56 155 201
3 155 12 200
3 201 200 55
3 200 201 155
3 57 203 202
3 203 55 218
3 202 218 17
3 218 202 203
3 55 203 201
3 203 57 198
3 201 198 56
3 198 201 203
3 11 204 187
3 204 57 208
3 187 208 51
3 208 187 204
3 57 202 209
3 202 17 205
3 209 205 70
3 205 209 202
3 51 207 206
3 207 70 250
3 206 250 16
3 250 206 207
3 70 207 209
3 207 51 208
3 209 208 57
3 208 209 207
3 12 211 216
3 211 59 210
3 216 210 60
3 210 216 211
3 59 167 213
3 167 13 212
3 213 212 58
3 212 213 167
3 60 215 214
3 215 58 231
3 214 231 18
3 231 214 215
3 58 215 213
3 215 60 210
3 213 210 59
3 210 213 215
3 12 216 200
3 216 60 220
3 200 220 55
3 220 200 216
3 60 214 221
3 214 18 217
3 221 217 74
3 217 221 214
3 55 219 218
3 219 74 263
3 218 263 17
3 263 218 219
3 74 219 221
3 219 55 220
3 221 220 60
3 220 221 219
3 13 223 229
3 223 62 222
3 229 222 63
3 222 229 223
3 62 180 225
3 180 14 224
3 225 224 61
3 224 225 180
3 63 228 227
3 228 61 226
3 227 226 19
3 226 227 228
3 61 228 225
3 228 63 222
3 225 222 62
3 222 225 228
3 13 229 212
3 229 63 233
3 212 233 58
3 233 212 229
3 63 227 234
3 227 19 230
3 234 230 78
3 230 234 227
3 58 232 231
3 232 78 276
3 231 276 18
3 276 231 232
3 78 232 234
3 232 58 233
3 234 233 63
3 233 234 232
3 15 236 235
3 236 66 240
3 235 240 65
3 240 235 236
3 66 193 238
3 193 16 237
3 238 237 64
3 237 238 193
3 65 241 239
3 241 64 244
3 239 244 20
3 244 239 241
3 64 241 238
3 241 65 240
3 238 240 66
3 240 238 241
3 20 244 243
3 244 64 242
3 243 242 68
3 242 243 244
3 64 237 247
3 237 16 245
3 247 245 67
3 245 247 237
3 68 248 246
3 248 67 259
3 246 259 21
3 259 246 248
3 67 248 247
3 248 68 242
3 247 242 64
3 242 247 248
3 16 250 255
3 250 70 249
3 255 249 72
3 249 255 250
3 70 205 252
3 205 17 251
3 252 251 69
3 251 252 205
3 72 254 253
3 254 69 272
3 253 272 22
3 272 253 254
3 69 254 252
3 254 72 249
3 252 249 70
3 249 252 254
3 16 255 245
3 255 72 261
3 245 261 67
3 261 245 255
3 72 253 257
3 253 22 256
3 257 256 71
3 256 257 253
3 67 260 259
3 260 71 258
3 259 258 21
3 258 259 260
3 71 260 257
3 260 67 261
3 257 261 72
3 261 257 260
3 17 263 268
3 263 74 262
3 268 262 76
3 262 268 263
3 74 217 265
3 217 18 264
3 265 264 73
3 264 265 217
3 76 267 266
3 267 73 286
3 266 286 23
3 286 266 267
3 73 267 265
3 267 76 262
3 265 262 74
3 262 265 267
3 17 268 251
3 268 76 274
3 251 274 69
3 274 251 268
3 76 266 270
3 266 23 269
3 270 269 75
3 269 270 266
3 69 273 272
3 273 75 271
3 272 271 22
3 271 272 273
3 75 273 270
3 273 69 274
3 270 274 76
3 274 270 273
3 18 276 282
3 276 78 275
3 282 275 80
3 275 282 276
3 78 230 278
3 230 19 277
3 278 277 77
3 277 278 230
3 80 281 280
3 281 77 279
3 280 279 24
3 279 280 281
3 77 281 278
3 281 80 275
3 278 275 78
3 275 278 281
3 18 282 264
3 282 80 288
3 264 288 73
3 288 264 282
3 80 280 284
3 280 24 283
3 284 283 79
3 283 284 280
3 73 287 286
3 287 79 285
3 286 285 23
3 285 286 287
3 79 287 284
3 287 73 288
3 284 288 80
3 288 284 287
2 0 82
2 82 26
2 26 85
2 85 1
2 27 88
2 88 0
2 5 91
2 91 27
2 1 96
2 96 30
2 30 99
2 99 2
2 2 109
2 109 33
2 33 112
2 112 3
2 3 121
2 121 36
2 36 124
2 124 4
2 4 130
2 130 37
2 37 131
2 131 9
2 40 141
2 141 5
2 10 144
2 144 40
2 9 174
2 174 48
2 48 176
2 176 14
2 53 191
2 191 10
2 15 194
2 194 53
2 14 224
2 224 61
2 61 226
2 226 19
2 65 235
2 235 15
2 20 239
2 239 65
2 68 243
2 243 20
2 21 246
2 246 68
2 22 256
2 256 71
2 71 258
2 258 21
2 23 269
2 269 75
2 75 271
2 271 22
2 19 277
2 277 77
2 77 279
2 279 24
2 24 283
2 283 79
2 79 285
2 285 23

CELL_TYPES 576
5 5 5 5 5 5 5 5 5 5 5 5 5 5 5 5 5 5 5 5 5 5 5 5 5 5 5 5 5 5 5 5 5 5 5 5 5 5 5 5 5 5 5 5 5 5 5 5 5 5 5 5 5 5 5 5 5 5 5 5 5 5 5 5 5 5 5 5 5 5 5 5 5 5 5 5 5 5 5 5 5 5 5 5 5 5 5 5 5 5 5 5 5 5 5 5 5 5 5 5 5 5 5 5 5 5 5 5 5 5 5 5 5 5 5 5 5 5 5 5 5 5 5 5 5 5 5 5 5 5 5 5 5 5 5 5 5 5 5 5 5 5 5 5 5 5 5 5 5 5 5 5 5 5 5 5 5 5 5 5 5 5 5 5 5 5 5 5 5 5 5 5 5 5 5 5 5 5 5 5 5 5 5 5 5 5 5 5 5 5 5 5 5 5 5 5 5 5 5 5 5 5 5 5 5 5 5 5 5 5 5 5 5 5 5 5 5 5 5 5 5 5 5 5 5 5 5 5 5 5 5 5 5 5 5 5 5 5 5 5 5 5 5 5 5 5 5 5 5 5 5 5 5 5 5 5 5 5 5 5 5 5 5 5 5 5 5 5 5 5 5 5 5 5 5 5 5 5 5 5 5 5 5 5 5 5 5 5 5 5 5 5 5 5 5 5 5 5 5 5 5 5 5 5 5 5 5 5 5 5 5 5 5 5 5 5 5 5 5 5 5 5 5 5 5 5 5 5 5 5 5 5 5 5 5 5 5 5 5 5 5 5 5 5 5 5 5 5 5 5 5 5 5 5 5 5 5 5 5 5 5 5 5 5 5 5 5 5 5 5 5 5 5 5 5 5 5 5 5 5 5 5 5 5 5 5 5 5 5 5 5 5 5 5 5 5 5 5 5 5 5 5 5 5 5 5 5 5 5 5 5 5 5 5 5 5 5 5 5 5 5 5 5 5 5 5 5 5 5 5 5 5 5 5 5 5 5 5 5 5 5 5 5 5 5 5 5 5 5 5 5 5 5 5 5 5 5 5 5 5 5 5 5 5 5 5 5 5 5 5 5 5 5 5 5 5 5 5 5 5 5 5 5 5 5 5 5 5 5 5 5 5 5 5 5 5 5 5 5 5 5 5 5 5 5 5 5 5 5 5 5 5 3 3 3 3 3 3 3 3 3 3 3 3 3 3 3 3 3 3 3 3 3 3 3 3 3 3 3 3 3 3 3 3 3 3 3 3 3 3 3 3 3 3 3 3 3 3 3 3 3 3 3 3 3 3 3 3 3 3 3 3 3 3 3 3 
CELL_DATA 576
Scalars  Label int 1
LOOKUP_TABLE FreeFempp_table
0
0
0
0
0
0
0
0
0
0
0
0
0
0
0
0
0
0
0
0
0
0
0
0
0
0
0
0
0
0
0
0
0
0
0
0
0
0
0
0
0
0
0
0
0
0
0
0
0
0
0
0
0
0
0
0
0
0
0
0
0
0
0
0
0
0
0
0
0
0
0
0
0
0
0
0
0
0
0
0
0
0
0
0
0
0
0
0
0
0
0
0
0
0
0
0
0
0
0
0
0
0
0
0
0
0
0
0
0
0
0
0
0
0
0
0
0
0
0
0
0
0
0
0
0
0
0
0
0
0
0
0
0
0
0
0
0
0
0
0
0
0
0
0
0
0
0
0
0
0
0
0
0
0
0
0
0
0
0
0
0
0
0
0
0
0
0
0
0
0
0
0
0
0
0
0
0
0
0
0
0
0
0
0
0
0
0
0
0
0
0
0
0
0
0
0
0
0
0
0
0
0
0
0
0
0
0
0
0
0
0
0
0
0
0
0
0
0
0
0
0
0
0
0
0
0
0
0
0
0
0
0
0
0
0
0
0
0
0
0
0
0
0
0
0
0
0
0
0
0
0
0
0
0
0
0
0
0
0
0
0
0
0
0
0
0
0
0
0
0
0
0
0
0
0
0
0
0
0
0
0
0
0
0
0
0
0
0
0
0
0
0
0
0
0
0
0
0
0
0
0
0
0
0
0
0
0
0
0
0
0
0
0
0
0
0
0
0
0
0
0
0
0
0
0
0
0
0
0
0
0
0
0
0
0
0
0
0
0
0
0
0
0
0
0
0
0
0
0
0
0
0
0
0
0
0
0
0
0
0
0
0
0
0
0
0
0
0
0
0
0
0
0
0
0
0
0
0
0
0
0
0
0
0
0
0
0
0
0
0
0
0
0
0
0
0
0
0
0
0
0
0
0
0
0
0
0
0
0
0
0
0
0
0
0
0
0
0
0
0
0
0
0
0
0
0
0
0
0
0
0
0
0
0
0
0
0
0
0
0
0
0
0
0
0
0
0
0
0
0
0
0
0
0
0
0
0
0
0
0
0
0
0
0
0
0
0
0
0
0
0
0
0
0
0
0
0
0
0
0
0
0
0
0
0
0
0
0
0
0
0
0
0
0
0
0
0
0
0
0
0
0
0
0
0
0
0
0
0
0
0
0
1
1
1
1
4
4
4
4
1
1
1
1
1
1
1
1
1
1
1
1
2
2
2
2
4
4
4
4
2
2
2
2
4
4
4
4
2
2
2
2
4
4
4
4
3
3
3
3
3
3
3
3
3
3
3
3
2
2
2
2
3
3
3
3

LOOKUP_TABLE FreeFempp_table 5
1.00000000 0.00000000 0.00000000 1.00000000
1.00000000 1.00000000 0.00000000 1.00000000
1.00000000 0.00000000 1.00000000 1.00000000
0.00000000 1.00000000 0.00000000 1.00000000
0.00000000 1.00000000 1.00000000 1.00000000

FIELD FieldData 1
Pressure 1 576 float
1.30961537e-01 3.22540015e-01 3.19337964e-01 2.59061217e-01 5.01736343e-01 6.61659420e-01 6.55276060e-01 6.09502912e-01 4.87497658e-01 6.43031240e-01 6.24919116e-01 5.88654578e-01 6.01772785e-01 4.37103987e-01 4.42778796e-01 4.96837020e-01 6.54173568e-02 2.55691200e-01 6.45242408e-02 1.29623398e-01 4.27521914e-01 5.70102930e-01 4.13998127e-01 4.73715514e-01 6.30562380e-02 2.42083639e-01 6.10063039e-02 1.23468503e-01 3.04377824e-01 1.27124578e-01 3.13283622e-01 2.50039011e-01 7.96157420e-01 9.00059223e-01 8.91504049e-01 8.67191911e-01 9.69371021e-01 1.00142896e+00 9.91992295e-01 9.92852509e-01 9.42427933e-01 9.73666131e-01 9.46439147e-01 9.59356368e-01 9.80507314e-01 9.36415911e-01 9.48243856e-01 9.60201144e-01 7.52812207e-01 8.56331885e-01 7.43334711e-01 7.88542330e-01 9.16181087e-01 9.29334462e-01 8.87475908e-01 9.16040838e-01 7.27193356e-01 8.11501741e-01 7.04334438e-01 7.52126992e-01 8.50428939e-01 7.73868203e-01 8.74963820e-01 8.37788403e-01 9.95000362e-01 9.50331092e-01 9.41424787e-01 9.67344403e-01 8.69134843e-01 7.54530847e-01 7.47445345e-01 7.94524252e-01 8.45150828e-01 7.33690083e-01 7.13273704e-01 7.67848969e-01 7.84698069e-01 8.87099981e-01 8.98201585e-01 8.60994160e-01 9.99302626e-01 9.55373645e-01 9.86910045e-01 9.85653937e-01 8.68039608e-01 7.43937135e-01 8.40966880e-01 8.21600795e-01 9.65652883e-01 9.05632854e-01 9.35466945e-01 9.40453172e-01 8.98305714e-01 9.67475295e-01 9.24086213e-01 9.34823453e-01 6.61682010e-01 5.01752615e-01 6.55374527e-01 6.09546363e-01 3.22550237e-01 1.30966336e-01 3.19384426e-01 2.59078026e-01 6.43228650e-01 4.87657279e-01 6.25268519e-01 5.88885903e-01 4.37187761e-01 6.01890564e-01 4.42807049e-01 4.96907741e-01 5.70518732e-01 4.27711755e-01 4.14382309e-01 4.74039912e-01 2.55744249e-01 6.54223263e-02 6.45396784e-02 1.29644722e-01 2.42370635e-01 6.30957559e-02 6.10955134e-02 1.23600103e-01 1.27180949e-01 3.04640293e-01 3.13400686e-01 2.50171363e-01 1.18652634e-01 2.92611748e-01 2.78050750e-01 2.31837496e-01 4.55477893e-01 6.00925148e-01 5.71185529e-01 5.46149313e-01 4.06136304e-01 5.35955071e-01 4.95565981e-01 4.82800603e-01 5.16961157e-01 3.75310779e-01 3.96553993e-01 4.32887107e-01 5.83786480e-02 2.19371468e-01 5.51920347e-02 1.12704046e-01 3.50458860e-01 4.43993777e-01 3.22236180e-01 3.75477970e-01 5.14751822e-02 1.88254386e-01 4.72639017e-02 9.76273045e-02 2.41079077e-01 1.05673440e-01 2.60818958e-01 2.04797149e-01 7.23303378e-01 8.17883790e-01 7.77515411e-01 7.77520478e-01 8.81024122e-01 9.10295904e-01 8.65444899e-01 8.90499175e-01 7.86081016e-01 8.12271416e-01 7.51275539e-01 7.87637055e-01 8.43124807e-01 8.05079401e-01 8.50354612e-01 8.37579787e-01 6.74798727e-01 7.36084104e-01 6.38793826e-01 6.87562168e-01 7.52057076e-01 7.24562943e-01 6.91791475e-01 7.27012277e-01 5.96643209e-01 6.32424831e-01 5.48748374e-01 5.96646249e-01 6.74799562e-01 6.45210147e-01 7.29670584e-01 6.87565088e-01 9.04572189e-01 8.64067793e-01 8.21566284e-01 8.67856503e-01 7.90328443e-01 6.86179519e-01 6.52532279e-01 7.12999225e-01 7.05440998e-01 6.12591982e-01 5.66737056e-01 6.30929828e-01 6.75220490e-01 7.63163865e-01 8.05929244e-01 7.51501203e-01 8.96409869e-01 8.21758807e-01 8.48757207e-01 8.60038698e-01 7.13049829e-01 5.80552697e-01 6.56064212e-01 6.52580917e-01 7.92936921e-01 7.06349909e-01 7.29478896e-01 7.46656239e-01 7.13331521e-01 8.07234585e-01 7.71163046e-01 7.67752290e-01 5.55637181e-01 4.03739572e-01 3.84071499e-01 4.49494004e-01 2.36344993e-01 5.98815344e-02 5.70262149e-02 1.17541730e-01 2.11243272e-01 5.36156297e-02 4.96810414e-02 1.04209639e-01 1.11420803e-01 2.73901373e-01 2.89074123e-01 2.24891528e-01 5.92641056e-01 4.25801784e-01 5.61307311e-01 5.28465271e-01 2.56055713e-01 9.59833935e-02 2.35721573e-01 1.95535317e-01 5.24544775e-01 3.66288781e-01 4.82712358e-01 4.59092677e-01 3.33766162e-01 4.96180981e-01 3.60671014e-01 3.97973597e-01 8.86456743e-02 2.19025925e-01 1.94892049e-01 1.69909716e-01 3.41212004e-01 4.50410128e-01 4.00938213e-01 4.00921673e-01 2.63325989e-01 3.47665936e-01 2.91156203e-01 3.03810865e-01 3.54025096e-01 2.56853282e-01 2.90923417e-01 3.03689599e-01 4.26010340e-02 1.49965391e-01 3.75393592e-02 7.88255930e-02 2.20422253e-01 2.50808448e-01 1.82038039e-01 2.20579952e-01 3.21452096e-02 1.06279515e-01 2.64858212e-02 5.71720563e-02 1.41553581e-01 6.82886913e-02 1.68961838e-01 1.28670633e-01 5.42338729e-01 6.13429606e-01 5.46155035e-01 5.71195543e-01 6.60940289e-01 6.83042049e-01 6.08227789e-01 6.54508471e-01 5.10396898e-01 5.27553499e-01 4.41796690e-01 4.96219188e-01 5.78148544e-01 5.51916420e-01 6.24862432e-01 5.88501930e-01 4.95574713e-01 5.04473686e-01 4.37650025e-01 4.82819259e-01 4.73659724e-01 4.09510642e-01 3.90848905e-01 4.27379727e-01 3.75563890e-01 3.57216775e-01 3.09938341e-01 3.50567728e-01 3.96565646e-01 4.18681502e-01 4.73631412e-01 4.32914734e-01 6.78884506e-01 6.48626924e-01 5.77672482e-01 6.38141930e-01 5.93431056e-01 5.15415788e-01 4.59126741e-01 5.24578869e-01 4.58600789e-01 3.98413122e-01 3.33858520e-01 3.98053288e-01 4.63549763e-01 5.23737013e-01 5.92756510e-01 5.28562665e-01 6.58992708e-01 5.63785017e-01 5.82157075e-01 6.04571640e-01 4.49670255e-01 3.28718394e-01 3.71268362e-01 3.84218216e-01 4.99711663e-01 3.99540097e-01 4.12450880e-01 4.39240545e-01 4.19799984e-01 5.24433076e-01 5.01151383e-01 4.83995140e-01 4.17571098e-01 3.03633571e-01 2.70572245e-01 3.31066906e-01 1.77933723e-01 4.52648066e-02 4.04116400e-02 8.68284777e-02 1.37767583e-01 3.51688527e-02 2.95867268e-02 6.61026612e-02 7.68359751e-02 1.88440949e-01 2.13108823e-01 1.58615157e-01 4.36223179e-01 2.92653233e-01 3.85529459e-01 3.72023463e-01 1.61956534e-01 5.47309108e-02 1.33908659e-01 1.15590937e-01 3.31120044e-01 2.07758322e-01 2.73516744e-01 2.70643979e-01 1.96968272e-01 3.22890431e-01 2.34903008e-01 2.51418799e-01 2.35625543e-02 9.17652622e-02 1.75374784e-02 4.25838418e-02 1.56388104e-01 2.14923427e-01 1.15318775e-01 1.61414206e-01 1.12889884e-02 4.30274010e-02 4.87203710e-03 1.77607331e-02 7.39084110e-02 3.03761195e-02 1.04054496e-01 6.78162351e-02 4.86811670e-03 4.28306460e-02 1.11418553e-02 1.76289044e-02 1.14401512e-01 2.12462455e-01 1.50333211e-01 1.58218205e-01 1.69338156e-02 8.66404921e-02 2.20344532e-02 4.03578840e-02 9.98370722e-02 2.96090003e-02 7.29239807e-02 6.60766140e-02 2.79125452e-01 3.15699339e-01 2.31806740e-01 2.78097928e-01 3.40252519e-01 3.51785630e-01 2.58397222e-01 3.18862170e-01 1.57122910e-01 1.62557214e-01 6.52170107e-02 1.29354805e-01 2.25163639e-01 2.14811966e-01 3.04283321e-01 2.49864832e-01 2.41367757e-01 1.96310222e-01 1.70434847e-01 2.04991654e-01 1.23343937e-01 3.23800370e-02 3.07939835e-02 6.29646406e-02 9.78233367e-02 2.80508995e-02 2.42728014e-02 5.15280813e-02 5.83303459e-02 1.28866464e-01 1.45723164e-01 1.12678841e-01 3.49815249e-01 3.34400564e-01 2.45772719e-01 3.11232865e-01 3.06128085e-01 2.66079545e-01 1.95712581e-01 2.56206155e-01 1.41809016e-01 1.23396881e-01 4.97805811e-02 1.04366854e-01 1.81195065e-01 2.04492509e-01 2.89282709e-01 2.25072533e-01 3.21217597e-01 2.19923586e-01 2.26899937e-01 2.57022679e-01 1.17692702e-01 2.64291745e-02 2.96995230e-02 5.71087301e-02 1.30425498e-01 3.18271704e-02 3.27314250e-02 6.49753138e-02 6.22386411e-02 1.61767274e-01 1.54763684e-01 1.26490414e-01 2.15780854e-01 1.57126725e-01 1.15739569e-01 1.62082106e-01 9.22938064e-02 2.37177107e-02 1.76137257e-02 4.28259447e-02 4.31483909e-02 1.13213407e-02 4.88331541e-03 1.78073421e-02 3.04886401e-02 7.41606057e-02 1.04558557e-01 6.80832118e-02 2.13265151e-01 1.14798263e-01 1.50917947e-01 1.58808246e-01 4.29466404e-02 4.87925345e-03 1.11702429e-02 1.76720861e-02 8.70187432e-02 1.69922188e-02 2.21401379e-02 4.05308269e-02 2.97000352e-02 1.00224316e-01 7.31502697e-02 6.62957728e-02 1.30961537e-01 3.22540015e-01 5.01736343e-01 6.61659420e-01 6.45242408e-02 6.54173568e-02 6.10063039e-02 6.30562380e-02 7.96157420e-01 9.00059223e-01 9.69371021e-01 1.00142896e+00 9.95000362e-01 9.50331092e-01 8.69134843e-01 7.54530847e-01 6.61682010e-01 5.01752615e-01 3.22550237e-01 1.30966336e-01 6.54223263e-02 6.45396784e-02 6.30957559e-02 6.10955134e-02 5.51920347e-02 5.83786480e-02 4.72639017e-02 5.14751822e-02 5.98815344e-02 5.70262149e-02 5.36156297e-02 4.96810414e-02 3.75393592e-02 4.26010340e-02 2.64858212e-02 3.21452096e-02 4.52648066e-02 4.04116400e-02 3.51688527e-02 2.95867268e-02 1.75374784e-02 2.35625543e-02 4.87203710e-03 1.12889884e-02 1.11418553e-02 4.86811670e-03 2.20344532e-02 1.69338156e-02 3.23800370e-02 3.07939835e-02 2.80508995e-02 2.42728014e-02 2.64291745e-02 2.96995230e-02 3.18271704e-02 3.27314250e-02 2.37177107e-02 1.76137257e-02 1.13213407e-02 4.88331541e-03 4.87925345e-03 1.11702429e-02 1.69922188e-02 2.21401379e-02 
POINT_DATA 289
FIELD FieldData 2
Velocity 3 289 float