# vtk DataFile Version 2.0
./pics/Solution_1_9.vtk, Created by Freefem++ 
ASCII
DATASET UNSTRUCTURED_GRID
POINTS 289 float
0 0 0
0.25 0 0
0.5 0 0
0.75 0 0
1 0 0
0 0.25 0
0.25 0.25 0
0.5 0.25 0
0.75 0.25 0
1 0.25 0
0 0.5 0
0.25 0.5 0
0.5 0.5 0
0.75 0.5 0
1 0.5 0
0 0.75 0
0.25 0.75 0
0.5 0.75 0
0.75 0.75 0
1 0.75 0
0 1 0
0.25 1 0
0.5 1 0
0.75 1 0
1 1 0
0.25 0.125 0
0.125 0 0
0 0.125 0
0.125 0.125 0
0.5 0.125 0
0.375 0 0
0.375 0.125 0
0.75 0.125 0
0.625 0 0
0.625 0.125 0
0.875 0.125 0
0.875 0 0
1 0.125 0
0.25 0.375 0
0.125 0.25 0
0 0.375 0
0.125 0.375 0
0.5 0.375 0
0.375 0.25 0
0.375 0.375 0
0.75 0.375 0
0.625 0.25 0
0.625 0.375 0
1 0.375 0
0.875 0.25 0
0.875 0.375 0
0.25 0.625 0
0.125 0.5 0
0 0.625 0
0.125 0.625 0
0.5 0.625 0
0.375 0.5 0
0.375 0.625 0
0.75 0.625 0
0.625 0.5 0
0.625 0.625 0
1 0.625 0
0.875 0.5 0
0.875 0.625 0
0.125 0.875 0
0 0.875 0
0.125 0.75 0
0.25 0.875 0
0.125 1 0
0.5 0.875 0
0.375 0.75 0
0.375 1 0
0.375 0.875 0
0.75 0.875 0
0.625 0.75 0
0.625 1 0
0.625 0.875 0
1 0.875 0
0.875 0.75 0
0.875 1 0
0.875 0.875 0
0.125 0.0625 0
0.0625 0 0
0.25 0.0625 0
0.1875 0.0625 0
0.1875 0 0
0.1875 0.1875 0
0.1875 0.125 0
0 0.0625 0
0.0625 0.0625 0
0.1875 0.25 0
0 0.1875 0
0.0625 0.1875 0
0.0625 0.125 0
0.125 0.1875 0
0.375 0.0625 0
0.3125 0 0
0.5 0.0625 0
0.4375 0.0625 0
0.4375 0 0
0.4375 0.1875 0
0.4375 0.125 0
0.3125 0.0625 0
0.4375 0.25 0
0.25 0.1875 0
0.3125 0.1875 0
0.3125 0.125 0
0.375 0.1875 0
0.625 0.0625 0
0.5625 0 0
0.75 0.0625 0
0.6875 0.0625 0
0.6875 0 0
0.6875 0.1875 0
0.6875 0.125 0
0.5625 0.0625 0
0.6875 0.25 0
0.5 0.1875 0
0.5625 0.1875 0
0.5625 0.125 0
0.625 0.1875 0
0.8125 0 0
0.9375 0.0625 0
0.875 0.0625 0
0.9375 0 0
0.75 0.1875 0
0.8125 0.125 0
0.8125 0.0625 0
0.875 0.1875 0
0.8125 0.1875 0
1 0.0625 0
1 0.1875 0
0.9375 0.25 0
0.9375 0.125 0
0.9375 0.1875 0
0.125 0.3125 0
0.0625 0.25 0
0.25 0.3125 0
0.1875 0.3125 0
0.1875 0.4375 0
0.1875 0.375 0
0 0.3125 0
0.0625 0.3125 0
0.1875 0.5 0
0 0.4375 0
0.0625 0.4375 0
0.0625 0.375 0
0.125 0.4375 0
0.375 0.3125 0
0.3125 0.25 0
0.5 0.3125 0
0.4375 0.3125 0
0.4375 0.4375 0
0.4375 0.375 0
0.3125 0.3125 0
0.4375 0.5 0
0.25 0.4375 0
0.3125 0.4375 0
0.3125 0.375 0
0.375 0.4375 0
0.625 0.3125 0
0.5625 0.25 0
0.75 0.3125 0
0.6875 0.3125 0
0.6875 0.4375 0
0.6875 0.375 0
0.5625 0.3125 0
0.6875 0.5 0
0.5 0.4375 0
0.5625 0.4375 0
0.5625 0.375 0
0.625 0.4375 0
0.875 0.3125 0
0.8125 0.25 0
1 0.3125 0
0.9375 0.3125 0
1 0.4375 0
0.9375 0.4375 0
0.9375 0.375 0
0.8125 0.3125 0
0.9375 0.5 0
0.75 0.4375 0
0.8125 0.4375 0
0.8125 0.375 0
0.875 0.4375 0
0.125 0.5625 0
0.0625 0.5 0
0.25 0.5625 0
0.1875 0.5625 0
0.1875 0.6875 0
0.1875 0.625 0
0 0.5625 0
0.0625 0.5625 0
0.1875 0.75 0
0 0.6875 0
0.0625 0.6875 0
0.0625 0.625 0
0.125 0.6875 0
0.375 0.5625 0
0.3125 0.5 0
0.5 0.5625 0
0.4375 0.5625 0
0.4375 0.6875 0
0.4375 0.625 0
0.3125 0.5625 0
0.4375 0.75 0
0.25 0.6875 0
0.3125 0.6875 0
0.3125 0.625 0
0.375 0.6875 0
0.625 0.5625 0
0.5625 0.5 0
0.75 0.5625 0
0.6875 0.5625 0
0.6875 0.6875 0
0.6875 0.625 0
0.5625 0.5625 0
0.6875 0.75 0
0.5 0.6875 0
0.5625 0.6875 0
0.5625 0.625 0
0.625 0.6875 0
0.875 0.5625 0
0.8125 0.5 0
1 0.5625 0
0.9375 0.5625 0
1 0.6875 0
0.9375 0.6875 0
0.9375 0.625 0
0.8125 0.5625 0
0.9375 0.75 0
0.75 0.6875 0
0.8125 0.6875 0
0.8125 0.625 0
0.875 0.6875 0
0 0.8125 0
0.0625 0.75 0
0.1875 0.8125 0
0.125 0.8125 0
0 0.9375 0
0.0625 0.8125 0
0.0625 0.875 0
0.125 0.9375 0
0.0625 1 0
0.0625 0.9375 0
0.25 0.8125 0
0.1875 1 0
0.1875 0.875 0
0.1875 0.9375 0
0.375 0.8125 0
0.3125 0.75 0
0.5 0.8125 0
0.4375 0.8125 0
0.4375 0.9375 0
0.4375 0.875 0
0.3125 0.8125 0
0.4375 1 0
0.375 0.9375 0
0.3125 1 0
0.25 0.9375 0
0.3125 0.9375 0
0.3125 0.875 0
0.625 0.8125 0
0.5625 0.75 0
0.75 0.8125 0
0.6875 0.8125 0
0.6875 0.9375 0
0.6875 0.875 0
0.5625 0.8125 0
0.6875 1 0
0.625 0.9375 0
0.5625 1 0
0.5 0.9375 0
0.5625 0.9375 0
0.5625 0.875 0
0.875 0.8125 0
0.8125 0.75 0
1 0.8125 0
0.9375 0.8125 0
1 0.9375 0
0.9375 0.9375 0
0.9375 0.875 0
0.8125 0.8125 0
0.9375 1 0
0.875 0.9375 0
0.8125 1 0
0.75 0.9375 0
0.8125 0.9375 0
0.8125 0.875 0

CELLS 576 2240
3 0 82 89
3 82 26 81
3 89 81 28
3 81 89 82
3 26 85 84
3 85 1 83
3 84 83 25
3 83 84 85
3 28 87 86
3 87 25 104
3 86 104 6
3 104 86 87
3 25 87 84
3 87 28 81
3 84 81 26
3 81 84 87
3 0 89 88
3 89 28 93
3 88 93 27
3 93 88 89
3 28 86 94
3 86 6 90
3 94 90 39
3 90 94 86
3 27 92 91
3 92 39 136
3 91 136 5
3 136 91 92
3 39 92 94
3 92 27 93
3 94 93 28
3 93 94 92
3 1 96 102
3 96 30 95
3 102 95 31
3 95 102 96
3 30 99 98
3 99 2 97
3 98 97 29
3 97 98 99
3 31 101 100
3 101 29 117
3 100 117 7
3 117 100 101
3 29 101 98
3 101 31 95
3 98 95 30
3 95 98 101
3 1 102 83
3 102 31 106
3 83 106 25
3 106 83 102
3 31 100 107
3 100 7 103
3 107 103 43
3 103 107 100
3 25 105 104
3 105 43 149
3 104 149 6
3 149 104 105
3 43 105 107
3 105 25 106
3 107 106 31
3 106 107 105
3 2 109 115
3 109 33 108
3 115 108 34
3 108 115 109
3 33 112 111
3 112 3 110
3 111 110 32
3 110 111 112
3 34 114 113
3 114 32 125
3 113 125 8
3 125 113 114
3 32 114 111
3 114 34 108
3 111 108 33
3 108 111 114
3 2 115 97
3 115 34 119
3 97 119 29
3 119 97 115
3 34 113 120
3 113 8 116
3 120 116 46
3 116 120 113
3 29 118 117
3 118 46 161
3 117 161 7
3 161 117 118
3 46 118 120
3 118 29 119
3 120 119 34
3 119 120 118
3 3 121 110
3 121 36 127
3 110 127 32
3 127 110 121
3 36 124 123
3 124 4 122
3 123 122 35
3 122 123 124
3 32 126 125
3 126 35 129
3 125 129 8
3 129 125 126
3 35 126 123
3 126 32 127
3 123 127 36
3 127 123 126
3 8 129 173
3 129 35 128
3 173 128 49
3 128 173 129
3 35 122 133
3 122 4 130
3 133 130 37
3 130 133 122
3 49 134 132
3 134 37 131
3 132 131 9
3 131 132 134
3 37 134 133
3 134 49 128
3 133 128 35
3 128 133 134
3 5 136 142
3 136 39 135
3 142 135 41
3 135 142 136
3 39 90 138
3 90 6 137
3 138 137 38
3 137 138 90
3 41 140 139
3 140 38 156
3 139 156 11
3 156 139 140
3 38 140 138
3 140 41 135
3 138 135 39
3 135 138 140
3 5 142 141
3 142 41 146
3 141 146 40
3 146 141 142
3 41 139 147
3 139 11 143
3 147 143 52
3 143 147 139
3 40 145 144
3 145 52 186
3 144 186 10
3 186 144 145
3 52 145 147
3 145 40 146
3 147 146 41
3 146 147 145
3 6 149 154
3 149 43 148
3 154 148 44
3 148 154 149
3 43 103 151
3 103 7 150
3 151 150 42
3 150 151 103
3 44 153 152
3 153 42 168
3 152 168 12
3 168 152 153
3 42 153 151
3 153 44 148
3 151 148 43
3 148 151 153
3 6 154 137
3 154 44 158
3 137 158 38
3 158 137 154
3 44 152 159
3 152 12 155
3 159 155 56
3 155 159 152
3 38 157 156
3 157 56 199
3 156 199 11
3 199 156 157
3 56 157 159
3 157 38 158
3 159 158 44
3 158 159 157
3 7 161 166
3 161 46 160
3 166 160 47
3 160 166 161
3 46 116 163
3 116 8 162
3 163 162 45
3 162 163 116
3 47 165 164
3 165 45 181
3 164 181 13
3 181 164 165
3 45 165 163
3 165 47 160
3 163 160 46
3 160 163 165
3 7 166 150
3 166 47 170
3 150 170 42
3 170 150 166
3 47 164 171
3 164 13 167
3 171 167 59
3 167 171 164
3 42 169 168
3 169 59 211
3 168 211 12
3 211 168 169
3 59 169 171
3 169 42 170
3 171 170 47
3 170 171 169
3 8 173 179
3 173 49 172
3 179 172 50
3 172 179 173
3 49 132 175
3 132 9 174
3 175 174 48
3 174 175 132
3 50 178 177
3 178 48 176
3 177 176 14
3 176 177 178
3 48 178 175
3 178 50 172
3 175 172 49
3 172 175 178
3 8 179 162
3 179 50 183
3 162 183 45
3 183 162 179
3 50 177 184
3 177 14 180
3 184 180 62
3 180 184 177
3 45 182 181
3 182 62 223
3 181 223 13
3 223 181 182
3 62 182 184
3 182 45 183
3 184 183 50
3 183 184 182
3 10 186 192
3 186 52 185
3 192 185 54
3 185 192 186
3 52 143 188
3 143 11 187
3 188 187 51
3 187 188 143
3 54 190 189
3 190 51 206
3 189 206 16
3 206 189 190
3 51 190 188
3 190 54 185
3 188 185 52
3 185 188 190
3 10 192 191
3 192 54 196
3 191 196 53
3 196 191 192
3 54 189 197
3 189 16 193
3 197 193 66
3 193 197 189
3 53 195 194
3 195 66 236
3 194 236 15
3 236 194 195
3 66 195 197
3 195 53 196
3 197 196 54
3 196 197 195
3 11 199 204
3 199 56 198
3 204 198 57
3 198 204 199
3 56 155 201
3 155 12 200
3 201 200 55
3 200 201 155
3 57 203 202
3 203 55 218
3 202 218 17
3 218 202 203
3 55 203 201
3 203 57 198
3 201 198 56
3 198 201 203
3 11 204 187
3 204 57 208
3 187 208 51
3 208 187 204
3 57 202 209
3 202 17 205
3 209 205 70
3 205 209 202
3 51 207 206
3 207 70 250
3 206 250 16
3 250 206 207
3 70 207 209
3 207 51 208
3 209 208 57
3 208 209 207
3 12 211 216
3 211 59 210
3 216 210 60
3 210 216 211
3 59 167 213
3 167 13 212
3 213 212 58
3 212 213 167
3 60 215 214
3 215 58 231
3 214 231 18
3 231 214 215
3 58 215 213
3 215 60 210
3 213 210 59
3 210 213 215
3 12 216 200
3 216 60 220
3 200 220 55
3 220 200 216
3 60 214 221
3 214 18 217
3 221 217 74
3 217 221 214
3 55 219 218
3 219 74 263
3 218 263 17
3 263 218 219
3 74 219 221
3 219 55 220
3 221 220 60
3 220 221 219
3 13 223 229
3 223 62 222
3 229 222 63
3 222 229 223
3 62 180 225
3 180 14 224
3 225 224 61
3 224 225 180
3 63 228 227
3 228 61 226
3 227 226 19
3 226 227 228
3 61 228 225
3 228 63 222
3 225 222 62
3 222 225 228
3 13 229 212
3 229 63 233
3 212 233 58
3 233 212 229
3 63 227 234
3 227 19 230
3 234 230 78
3 230 234 227
3 58 232 231
3 232 78 276
3 231 276 18
3 276 231 232
3 78 232 234
3 232 58 233
3 234 233 63
3 233 234 232
3 15 236 235
3 236 66 240
3 235 240 65
3 240 235 236
3 66 193 238
3 193 16 237
3 238 237 64
3 237 238 193
3 65 241 239
3 241 64 244
3 239 244 20
3 244 239 241
3 64 241 238
3 241 65 240
3 238 240 66
3 240 238 241
3 20 244 243
3 244 64 242
3 243 242 68
3 242 243 244
3 64 237 247
3 237 16 245
3 247 245 67
3 245 247 237
3 68 248 246
3 248 67 259
3 246 259 21
3 259 246 248
3 67 248 247
3 248 68 242
3 247 242 64
3 242 247 248
3 16 250 255
3 250 70 249
3 255 249 72
3 249 255 250
3 70 205 252
3 205 17 251
3 252 251 69
3 251 252 205
3 72 254 253
3 254 69 272
3 253 272 22
3 272 253 254
3 69 254 252
3 254 72 249
3 252 249 70
3 249 252 254
3 16 255 245
3 255 72 261
3 245 261 67
3 261 245 255
3 72 253 257
3 253 22 256
3 257 256 71
3 256 257 253
3 67 260 259
3 260 71 258
3 259 258 21
3 258 259 260
3 71 260 257
3 260 67 261
3 257 261 72
3 261 257 260
3 17 263 268
3 263 74 262
3 268 262 76
3 262 268 263
3 74 217 265
3 217 18 264
3 265 264 73
3 264 265 217
3 76 267 266
3 267 73 286
3 266 286 23
3 286 266 267
3 73 267 265
3 267 76 262
3 265 262 74
3 262 265 267
3 17 268 251
3 268 76 274
3 251 274 69
3 274 251 268
3 76 266 270
3 266 23 269
3 270 269 75
3 269 270 266
3 69 273 272
3 273 75 271
3 272 271 22
3 271 272 273
3 75 273 270
3 273 69 274
3 270 274 76
3 274 270 273
3 18 276 282
3 276 78 275
3 282 275 80
3 275 282 276
3 78 230 278
3 230 19 277
3 278 277 77
3 277 278 230
3 80 281 280
3 281 77 279
3 280 279 24
3 279 280 281
3 77 281 278
3 281 80 275
3 278 275 78
3 275 278 281
3 18 282 264
3 282 80 288
3 264 288 73
3 288 264 282
3 80 280 284
3 280 24 283
3 284 283 79
3 283 284 280
3 73 287 286
3 287 79 285
3 286 285 23
3 285 286 287
3 79 287 284
3 287 73 288
3 284 288 80
3 288 284 287
2 0 82
2 82 26
2 26 85
2 85 1
2 27 88
2 88 0
2 5 91
2 91 27
2 1 96
2 96 30
2 30 99
2 99 2
2 2 109
2 109 33
2 33 112
2 112 3
2 3 121
2 121 36
2 36 124
2 124 4
2 4 130
2 130 37
2 37 131
2 131 9
2 40 141
2 141 5
2 10 144
2 144 40
2 9 174
2 174 48
2 48 176
2 176 14
2 53 191
2 191 10
2 15 194
2 194 53
2 14 224
2 224 61
2 61 226
2 226 19
2 65 235
2 235 15
2 20 239
2 239 65
2 68 243
2 243 20
2 21 246
2 246 68
2 22 256
2 256 71
2 71 258
2 258 21
2 23 269
2 269 75
2 75 271
2 271 22
2 19 277
2 277 77
2 77 279
2 279 24
2 24 283
2 283 79
2 79 285
2 285 23

CELL_TYPES 576
5 5 5 5 5 5 5 5 5 5 5 5 5 5 5 5 5 5 5 5 5 5 5 5 5 5 5 5 5 5 5 5 5 5 5 5 5 5 5 5 5 5 5 5 5 5 5 5 5 5 5 5 5 5 5 5 5 5 5 5 5 5 5 5 5 5 5 5 5 5 5 5 5 5 5 5 5 5 5 5 5 5 5 5 5 5 5 5 5 5 5 5 5 5 5 5 5 5 5 5 5 5 5 5 5 5 5 5 5 5 5 5 5 5 5 5 5 5 5 5 5 5 5 5 5 5 5 5 5 5 5 5 5 5 5 5 5 5 5 5 5 5 5 5 5 5 5 5 5 5 5 5 5 5 5 5 5 5 5 5 5 5 5 5 5 5 5 5 5 5 5 5 5 5 5 5 5 5 5 5 5 5 5 5 5 5 5 5 5 5 5 5 5 5 5 5 5 5 5 5 5 5 5 5 5 5 5 5 5 5 5 5 5 5 5 5 5 5 5 5 5 5 5 5 5 5 5 5 5 5 5 5 5 5 5 5 5 5 5 5 5 5 5 5 5 5 5 5 5 5 5 5 5 5 5 5 5 5 5 5 5 5 5 5 5 5 5 5 5 5 5 5 5 5 5 5 5 5 5 5 5 5 5 5 5 5 5 5 5 5 5 5 5 5 5 5 5 5 5 5 5 5 5 5 5 5 5 5 5 5 5 5 5 5 5 5 5 5 5 5 5 5 5 5 5 5 5 5 5 5 5 5 5 5 5 5 5 5 5 5 5 5 5 5 5 5 5 5 5 5 5 5 5 5 5 5 5 5 5 5 5 5 5 5 5 5 5 5 5 5 5 5 5 5 5 5 5 5 5 5 5 5 5 5 5 5 5 5 5 5 5 5 5 5 5 5 5 5 5 5 5 5 5 5 5 5 5 5 5 5 5 5 5 5 5 5 5 5 5 5 5 5 5 5 5 5 5 5 5 5 5 5 5 5 5 5 5 5 5 5 5 5 5 5 5 5 5 5 5 5 5 5 5 5 5 5 5 5 5 5 5 5 5 5 5 5 5 5 5 5 5 5 5 5 5 5 5 5 5 5 5 5 5 5 5 5 5 5 5 5 5 5 5 5 5 5 5 5 5 5 5 5 5 5 5 5 5 5 5 5 5 5 3 3 3 3 3 3 3 3 3 3 3 3 3 3 3 3 3 3 3 3 3 3 3 3 3 3 3 3 3 3 3 3 3 3 3 3 3 3 3 3 3 3 3 3 3 3 3 3 3 3 3 3 3 3 3 3 3 3 3 3 3 3 3 3 
CELL_DATA 576
Scalars  Label int 1
LOOKUP_TABLE FreeFempp_table
0
0
0
0
0
0
0
0
0
0
0
0
0
0
0
0
0
0
0
0
0
0
0
0
0
0
0
0
0
0
0
0
0
0
0
0
0
0
0
0
0
0
0
0
0
0
0
0
0
0
0
0
0
0
0
0
0
0
0
0
0
0
0
0
0
0
0
0
0
0
0
0
0
0
0
0
0
0
0
0
0
0
0
0
0
0
0
0
0
0
0
0
0
0
0
0
0
0
0
0
0
0
0
0
0
0
0
0
0
0
0
0
0
0
0
0
0
0
0
0
0
0
0
0
0
0
0
0
0
0
0
0
0
0
0
0
0
0
0
0
0
0
0
0
0
0
0
0
0
0
0
0
0
0
0
0
0
0
0
0
0
0
0
0
0
0
0
0
0
0
0
0
0
0
0
0
0
0
0
0
0
0
0
0
0
0
0
0
0
0
0
0
0
0
0
0
0
0
0
0
0
0
0
0
0
0
0
0
0
0
0
0
0
0
0
0
0
0
0
0
0
0
0
0
0
0
0
0
0
0
0
0
0
0
0
0
0
0
0
0
0
0
0
0
0
0
0
0
0
0
0
0
0
0
0
0
0
0
0
0
0
0
0
0
0
0
0
0
0
0
0
0
0
0
0
0
0
0
0
0
0
0
0
0
0
0
0
0
0
0
0
0
0
0
0
0
0
0
0
0
0
0
0
0
0
0
0
0
0
0
0
0
0
0
0
0
0
0
0
0
0
0
0
0
0
0
0
0
0
0
0
0
0
0
0
0
0
0
0
0
0
0
0
0
0
0
0
0
0
0
0
0
0
0
0
0
0
0
0
0
0
0
0
0
0
0
0
0
0
0
0
0
0
0
0
0
0
0
0
0
0
0
0
0
0
0
0
0
0
0
0
0
0
0
0
0
0
0
0
0
0
0
0
0
0
0
0
0
0
0
0
0
0
0
0
0
0
0
0
0
0
0
0
0
0
0
0
0
0
0
0
0
0
0
0
0
0
0
0
0
0
0
0
0
0
0
0
0
0
0
0
0
0
0
0
0
0
0
0
0
0
0
0
0
0
0
0
0
0
0
0
0
0
0
0
0
0
0
0
0
0
0
0
0
0
0
0
0
0
0
0
0
0
0
0
0
0
0
0
0
0
0
0
0
0
0
0
0
0
0
0
0
1
1
1
1
4
4
4
4
1
1
1
1
1
1
1
1
1
1
1
1
2
2
2
2
4
4
4
4
2
2
2
2
4
4
4
4
2
2
2
2
4
4
4
4
3
3
3
3
3
3
3
3
3
3
3
3
2
2
2
2
3
3
3
3

LOOKUP_TABLE FreeFempp_table 5
1.00000000 0.00000000 0.00000000 1.00000000
1.00000000 1.00000000 0.00000000 1.00000000
1.00000000 0.00000000 1.00000000 1.00000000
0.00000000 1.00000000 0.00000000 1.00000000
0.00000000 1.00000000 1.00000000 1.00000000

FIELD FieldData 1
Pressure 1 576 float
1.31382436e-01 3.23566020e-01 3.20469290e-01 2.59930491e-01 5.03321171e-01 6.63741052e-01 6.57520235e-01 6.11502409e-01 4.89197493e-01 6.45230830e-01 6.26993239e-01 5.90659142e-01 6.03855073e-01 4.38644886e-01 4.44244474e-01 4.98560220e-01 6.56407848e-02 2.56617785e-01 6.47630915e-02 1.30092815e-01 4.29016709e-01 5.71991682e-01 4.15416449e-01 4.75327402e-01 6.32920787e-02 2.42956370e-01 6.12344071e-02 1.23927601e-01 3.05459291e-01 1.27598345e-01 3.14412385e-01 2.50948608e-01 7.98657119e-01 9.02881980e-01 8.94528508e-01 8.70016336e-01 9.72409070e-01 1.00456583e+00 9.95347381e-01 9.96078670e-01 9.45601523e-01 9.76939559e-01 9.49515462e-01 9.62547362e-01 9.83839452e-01 9.39603209e-01 9.51327980e-01 9.63452756e-01 7.55270123e-01 8.59253705e-01 7.45882571e-01 7.91225970e-01 9.19234157e-01 9.32327390e-01 8.90339851e-01 9.19023752e-01 7.29637921e-01 8.14129174e-01 7.06630826e-01 7.54595101e-01 8.53205502e-01 7.76491404e-01 8.77917051e-01 8.40588391e-01 9.98115838e-01 9.53305662e-01 9.44602966e-01 9.70483482e-01 8.71855974e-01 7.56897867e-01 7.49988973e-01 7.97108948e-01 8.47988784e-01 7.36178994e-01 7.15608895e-01 7.70412445e-01 7.87373006e-01 8.90107870e-01 9.01116371e-01 8.63904059e-01 1.00254738e+00 9.58612561e-01 9.90259588e-01 9.88984108e-01 8.70917916e-01 7.46334374e-01 8.43663335e-01 8.24264765e-01 9.68859792e-01 9.08538699e-01 9.38474178e-01 9.43504632e-01 9.01215553e-01 9.70723093e-01 9.27184522e-01 9.37923133e-01 6.63764417e-01 5.03340840e-01 6.57623947e-01 6.11549973e-01 3.23579520e-01 1.31388739e-01 3.20529521e-01 2.59952813e-01 6.45438731e-01 4.89380449e-01 6.27342343e-01 5.90906143e-01 4.38748628e-01 6.03985906e-01 4.44280088e-01 4.98646289e-01 5.72398603e-01 4.29226667e-01 4.15782243e-01 4.75654811e-01 2.56684780e-01 6.56472743e-02 6.47820085e-02 1.30119905e-01 2.43212581e-01 6.33324385e-02 6.13101237e-02 1.24046452e-01 1.27660185e-01 3.05712104e-01 3.14547151e-01 2.51090437e-01 1.19095951e-01 2.93645442e-01 2.79040575e-01 2.32675731e-01 4.57004011e-01 6.02878571e-01 5.73029339e-01 5.47932923e-01 4.07504678e-01 5.37687421e-01 4.97178167e-01 4.84381378e-01 5.18645763e-01 3.76592875e-01 3.97902399e-01 4.34335202e-01 5.85994199e-02 2.20176414e-01 5.54054864e-02 1.13132484e-01 3.51670891e-01 4.45462495e-01 3.23372453e-01 3.76760244e-01 5.16804308e-02 1.88983649e-01 4.74599637e-02 9.80217755e-02 2.41973281e-01 1.06085889e-01 2.61763126e-01 2.05566019e-01 7.25622773e-01 8.20491076e-01 7.79968500e-01 7.79991448e-01 8.83824348e-01 9.13183272e-01 8.68160009e-01 8.93312037e-01 7.88544714e-01 8.14810693e-01 7.53622890e-01 7.90100396e-01 8.45767319e-01 8.07609200e-01 8.53046834e-01 8.40213358e-01 6.76960766e-01 7.38407373e-01 6.40829265e-01 6.89746380e-01 7.54416347e-01 7.26829469e-01 6.93963885e-01 7.29290903e-01 5.98546147e-01 6.34424150e-01 5.50507545e-01 5.98544359e-01 6.76925123e-01 6.47256970e-01 7.31966674e-01 6.89733446e-01 9.07435894e-01 8.66797686e-01 8.24132800e-01 8.70586872e-01 7.92823613e-01 6.88354731e-01 6.54562414e-01 7.15239167e-01 7.07630217e-01 6.14484668e-01 5.68484426e-01 6.32881105e-01 6.77316546e-01 7.65539706e-01 8.08460116e-01 7.53843427e-01 8.99235904e-01 8.24323475e-01 8.51411939e-01 8.62731397e-01 7.15263903e-01 5.82345843e-01 6.58099890e-01 6.54603720e-01 7.95411110e-01 7.08547890e-01 7.31754422e-01 7.48983443e-01 7.15549469e-01 8.09752703e-01 7.73563087e-01 7.70142615e-01 5.57416260e-01 4.05049801e-01 3.85257602e-01 4.50921863e-01 2.37123489e-01 6.00816980e-02 5.71996942e-02 1.17920429e-01 2.11862668e-01 5.37696257e-02 4.98183668e-02 1.04506314e-01 1.11752823e-01 2.74730206e-01 2.89998740e-01 2.25579336e-01 5.94511211e-01 4.27108496e-01 5.63042998e-01 5.30105889e-01 2.56808609e-01 9.62469429e-02 2.36400336e-01 1.96093649e-01 5.26155114e-01 3.67386281e-01 4.84189391e-01 4.60492134e-01 3.34759057e-01 4.97701317e-01 3.61757785e-01 3.99176836e-01 8.90206620e-02 2.19866902e-01 1.95675224e-01 1.70597091e-01 3.42402846e-01 4.51893747e-01 4.02286321e-01 4.02272016e-01 2.64298528e-01 3.48860294e-01 2.92147189e-01 3.04875821e-01 3.55248779e-01 2.57822186e-01 2.91980118e-01 3.04783702e-01 4.27872166e-02 1.50603518e-01 3.77130732e-02 7.91782439e-02 2.21262038e-01 2.51645625e-01 1.82658643e-01 2.21358374e-01 3.22940573e-02 1.06664449e-01 2.65839733e-02 5.74081056e-02 1.42094448e-01 6.86038435e-02 1.69661298e-01 1.29222363e-01 5.44075966e-01 6.15369081e-01 5.47894955e-01 5.73011935e-01 6.63015783e-01 6.85177982e-01 6.10133648e-01 6.56559050e-01 5.12019038e-01 5.29213369e-01 4.43198055e-01 4.97789115e-01 5.79965889e-01 5.53666174e-01 6.26830876e-01 5.90357602e-01 4.97180074e-01 5.06095648e-01 4.39092457e-01 4.84385848e-01 4.75178748e-01 4.10822630e-01 3.92127961e-01 4.28757817e-01 3.76824021e-01 3.58410597e-01 3.10979456e-01 3.51743937e-01 3.97871733e-01 4.20064956e-01 4.75160271e-01 4.34330106e-01 6.81000888e-01 6.50643229e-01 5.79468012e-01 6.40127599e-01 5.95269203e-01 5.17001987e-01 4.60535437e-01 5.26196599e-01 4.60017115e-01 3.99629444e-01 3.34868371e-01 3.99272203e-01 4.64975566e-01 5.25359809e-01 5.94594657e-01 5.30198097e-01 6.61049664e-01 5.65539896e-01 5.83976865e-01 6.06457889e-01 4.51061606e-01 3.29715997e-01 3.72413754e-01 3.85400593e-01 5.01278520e-01 4.00786579e-01 4.13752288e-01 4.40618247e-01 4.21104997e-01 5.26072145e-01 5.02709091e-01 4.85502720e-01 4.18837398e-01 3.04524571e-01 2.71351099e-01 3.32047820e-01 1.78427130e-01 4.53847498e-02 4.05127443e-02 8.70565921e-02 1.38113871e-01 3.52497809e-02 2.96461470e-02 6.62515387e-02 7.70257935e-02 1.88951090e-01 2.13706911e-01 1.59037739e-01 4.37552333e-01 2.93506324e-01 3.86696368e-01 3.73142868e-01 1.62372053e-01 5.48359379e-02 1.34222195e-01 1.15855388e-01 3.32111657e-01 2.08324090e-01 2.74319649e-01 2.71431983e-01 1.97494596e-01 3.23850304e-01 2.35560343e-01 2.52133727e-01 2.36288179e-02 9.20141861e-02 1.75494105e-02 4.26724888e-02 1.56829298e-01 2.15580404e-01 1.15523510e-01 1.61834836e-01 1.12739522e-02 4.30031046e-02 4.85778088e-03 1.77287161e-02 7.39663616e-02 3.03774234e-02 1.04288846e-01 6.78852201e-02 4.85393545e-03 4.28081527e-02 1.11284349e-02 1.75984167e-02 1.14606291e-01 2.13110492e-01 1.50755867e-01 1.58630431e-01 1.69479027e-02 8.68758261e-02 2.20963079e-02 4.04441990e-02 1.00064948e-01 2.96144877e-02 7.29849562e-02 6.61500022e-02 2.80069530e-01 3.16772848e-01 2.32642323e-01 2.79060751e-01 3.41379672e-01 3.52920026e-01 2.59258002e-01 3.19909692e-01 1.57714963e-01 1.63128257e-01 6.54590949e-02 1.29830703e-01 2.25938782e-01 2.15591565e-01 3.05316776e-01 2.50735193e-01 2.42167741e-01 1.97037682e-01 1.71006560e-01 2.05703169e-01 1.23834260e-01 3.25053297e-02 3.09246313e-02 6.32211119e-02 9.81684998e-02 2.81730760e-02 2.43600029e-02 5.17319590e-02 5.85821718e-02 1.29344344e-01 1.46299288e-01 1.13139257e-01 3.50920796e-01 3.35439950e-01 2.46535450e-01 3.12206686e-01 3.07062119e-01 2.66867995e-01 1.96265578e-01 2.56967306e-01 1.42215669e-01 1.23714209e-01 4.98946309e-02 1.04637809e-01 1.81707740e-01 2.05107138e-01 2.90168405e-01 2.25745127e-01 3.22244614e-01 2.20614925e-01 2.27644175e-01 2.57847458e-01 1.18034981e-01 2.64936164e-02 2.97840685e-02 5.72647341e-02 1.30869538e-01 3.19284983e-02 3.28463204e-02 6.51951060e-02 6.24298193e-02 1.62299737e-01 1.55241728e-01 1.26890153e-01 2.16383010e-01 1.57510847e-01 1.15971774e-01 1.62485704e-01 9.24697071e-02 2.37540007e-02 1.76257510e-02 4.28837501e-02 4.31519113e-02 1.13133015e-02 4.87239799e-03 1.77873541e-02 3.04991808e-02 7.42498636e-02 1.04761384e-01 6.81657195e-02 2.13864341e-01 1.15032047e-01 1.51302353e-01 1.59211412e-01 4.29515094e-02 4.86839144e-03 1.11634219e-02 1.76532064e-02 8.72040763e-02 1.70073994e-02 2.21811328e-02 4.05963436e-02 2.97149681e-02 1.00434162e-01 7.32430071e-02 6.63848445e-02 1.31382436e-01 3.23566020e-01 5.03321171e-01 6.63741052e-01 6.47630915e-02 6.56407848e-02 6.12344071e-02 6.32920787e-02 7.98657119e-01 9.02881980e-01 9.72409070e-01 1.00456583e+00 9.98115838e-01 9.53305662e-01 8.71855974e-01 7.56897867e-01 6.63764417e-01 5.03340840e-01 3.23579520e-01 1.31388739e-01 6.56472743e-02 6.47820085e-02 6.33324385e-02 6.13101237e-02 5.54054864e-02 5.85994199e-02 4.74599637e-02 5.16804308e-02 6.00816980e-02 5.71996942e-02 5.37696257e-02 4.98183668e-02 3.77130732e-02 4.27872166e-02 2.65839733e-02 3.22940573e-02 4.53847498e-02 4.05127443e-02 3.52497809e-02 2.96461470e-02 1.75494105e-02 2.36288179e-02 4.85778088e-03 1.12739522e-02 1.11284349e-02 4.85393545e-03 2.20963079e-02 1.69479027e-02 3.25053297e-02 3.09246313e-02 2.81730760e-02 2.43600029e-02 2.64936164e-02 2.97840685e-02 3.19284983e-02 3.28463204e-02 2.37540007e-02 1.76257510e-02 1.13133015e-02 4.87239799e-03 4.86839144e-03 1.11634219e-02 1.70073994e-02 2.21811328e-02 
POINT_DATA 289
FIELD FieldData 2
Velocity 3 289 float