# vtk DataFile Version 2.0
./pics/Solution_1_8.vtk, Created by Freefem++ 
ASCII
DATASET UNSTRUCTURED_GRID
POINTS 289 float
0 0 0
0.25 0 0
0.5 0 0
0.75 0 0
1 0 0
0 0.25 0
0.25 0.25 0
0.5 0.25 0
0.75 0.25 0
1 0.25 0
0 0.5 0
0.25 0.5 0
0.5 0.5 0
0.75 0.5 0
1 0.5 0
0 0.75 0
0.25 0.75 0
0.5 0.75 0
0.75 0.75 0
1 0.75 0
0 1 0
0.25 1 0
0.5 1 0
0.75 1 0
1 1 0
0.25 0.125 0
0.125 0 0
0 0.125 0
0.125 0.125 0
0.5 0.125 0
0.375 0 0
0.375 0.125 0
0.75 0.125 0
0.625 0 0
0.625 0.125 0
0.875 0.125 0
0.875 0 0
1 0.125 0
0.25 0.375 0
0.125 0.25 0
0 0.375 0
0.125 0.375 0
0.5 0.375 0
0.375 0.25 0
0.375 0.375 0
0.75 0.375 0
0.625 0.25 0
0.625 0.375 0
1 0.375 0
0.875 0.25 0
0.875 0.375 0
0.25 0.625 0
0.125 0.5 0
0 0.625 0
0.125 0.625 0
0.5 0.625 0
0.375 0.5 0
0.375 0.625 0
0.75 0.625 0
0.625 0.5 0
0.625 0.625 0
1 0.625 0
0.875 0.5 0
0.875 0.625 0
0.125 0.875 0
0 0.875 0
0.125 0.75 0
0.25 0.875 0
0.125 1 0
0.5 0.875 0
0.375 0.75 0
0.375 1 0
0.375 0.875 0
0.75 0.875 0
0.625 0.75 0
0.625 1 0
0.625 0.875 0
1 0.875 0
0.875 0.75 0
0.875 1 0
0.875 0.875 0
0.125 0.0625 0
0.0625 0 0
0.25 0.0625 0
0.1875 0.0625 0
0.1875 0 0
0.1875 0.1875 0
0.1875 0.125 0
0 0.0625 0
0.0625 0.0625 0
0.1875 0.25 0
0 0.1875 0
0.0625 0.1875 0
0.0625 0.125 0
0.125 0.1875 0
0.375 0.0625 0
0.3125 0 0
0.5 0.0625 0
0.4375 0.0625 0
0.4375 0 0
0.4375 0.1875 0
0.4375 0.125 0
0.3125 0.0625 0
0.4375 0.25 0
0.25 0.1875 0
0.3125 0.1875 0
0.3125 0.125 0
0.375 0.1875 0
0.625 0.0625 0
0.5625 0 0
0.75 0.0625 0
0.6875 0.0625 0
0.6875 0 0
0.6875 0.1875 0
0.6875 0.125 0
0.5625 0.0625 0
0.6875 0.25 0
0.5 0.1875 0
0.5625 0.1875 0
0.5625 0.125 0
0.625 0.1875 0
0.8125 0 0
0.9375 0.0625 0
0.875 0.0625 0
0.9375 0 0
0.75 0.1875 0
0.8125 0.125 0
0.8125 0.0625 0
0.875 0.1875 0
0.8125 0.1875 0
1 0.0625 0
1 0.1875 0
0.9375 0.25 0
0.9375 0.125 0
0.9375 0.1875 0
0.125 0.3125 0
0.0625 0.25 0
0.25 0.3125 0
0.1875 0.3125 0
0.1875 0.4375 0
0.1875 0.375 0
0 0.3125 0
0.0625 0.3125 0
0.1875 0.5 0
0 0.4375 0
0.0625 0.4375 0
0.0625 0.375 0
0.125 0.4375 0
0.375 0.3125 0
0.3125 0.25 0
0.5 0.3125 0
0.4375 0.3125 0
0.4375 0.4375 0
0.4375 0.375 0
0.3125 0.3125 0
0.4375 0.5 0
0.25 0.4375 0
0.3125 0.4375 0
0.3125 0.375 0
0.375 0.4375 0
0.625 0.3125 0
0.5625 0.25 0
0.75 0.3125 0
0.6875 0.3125 0
0.6875 0.4375 0
0.6875 0.375 0
0.5625 0.3125 0
0.6875 0.5 0
0.5 0.4375 0
0.5625 0.4375 0
0.5625 0.375 0
0.625 0.4375 0
0.875 0.3125 0
0.8125 0.25 0
1 0.3125 0
0.9375 0.3125 0
1 0.4375 0
0.9375 0.4375 0
0.9375 0.375 0
0.8125 0.3125 0
0.9375 0.5 0
0.75 0.4375 0
0.8125 0.4375 0
0.8125 0.375 0
0.875 0.4375 0
0.125 0.5625 0
0.0625 0.5 0
0.25 0.5625 0
0.1875 0.5625 0
0.1875 0.6875 0
0.1875 0.625 0
0 0.5625 0
0.0625 0.5625 0
0.1875 0.75 0
0 0.6875 0
0.0625 0.6875 0
0.0625 0.625 0
0.125 0.6875 0
0.375 0.5625 0
0.3125 0.5 0
0.5 0.5625 0
0.4375 0.5625 0
0.4375 0.6875 0
0.4375 0.625 0
0.3125 0.5625 0
0.4375 0.75 0
0.25 0.6875 0
0.3125 0.6875 0
0.3125 0.625 0
0.375 0.6875 0
0.625 0.5625 0
0.5625 0.5 0
0.75 0.5625 0
0.6875 0.5625 0
0.6875 0.6875 0
0.6875 0.625 0
0.5625 0.5625 0
0.6875 0.75 0
0.5 0.6875 0
0.5625 0.6875 0
0.5625 0.625 0
0.625 0.6875 0
0.875 0.5625 0
0.8125 0.5 0
1 0.5625 0
0.9375 0.5625 0
1 0.6875 0
0.9375 0.6875 0
0.9375 0.625 0
0.8125 0.5625 0
0.9375 0.75 0
0.75 0.6875 0
0.8125 0.6875 0
0.8125 0.625 0
0.875 0.6875 0
0 0.8125 0
0.0625 0.75 0
0.1875 0.8125 0
0.125 0.8125 0
0 0.9375 0
0.0625 0.8125 0
0.0625 0.875 0
0.125 0.9375 0
0.0625 1 0
0.0625 0.9375 0
0.25 0.8125 0
0.1875 1 0
0.1875 0.875 0
0.1875 0.9375 0
0.375 0.8125 0
0.3125 0.75 0
0.5 0.8125 0
0.4375 0.8125 0
0.4375 0.9375 0
0.4375 0.875 0
0.3125 0.8125 0
0.4375 1 0
0.375 0.9375 0
0.3125 1 0
0.25 0.9375 0
0.3125 0.9375 0
0.3125 0.875 0
0.625 0.8125 0
0.5625 0.75 0
0.75 0.8125 0
0.6875 0.8125 0
0.6875 0.9375 0
0.6875 0.875 0
0.5625 0.8125 0
0.6875 1 0
0.625 0.9375 0
0.5625 1 0
0.5 0.9375 0
0.5625 0.9375 0
0.5625 0.875 0
0.875 0.8125 0
0.8125 0.75 0
1 0.8125 0
0.9375 0.8125 0
1 0.9375 0
0.9375 0.9375 0
0.9375 0.875 0
0.8125 0.8125 0
0.9375 1 0
0.875 0.9375 0
0.8125 1 0
0.75 0.9375 0
0.8125 0.9375 0
0.8125 0.875 0

CELLS 576 2240
3 0 82 89
3 82 26 81
3 89 81 28
3 81 89 82
3 26 85 84
3 85 1 83
3 84 83 25
3 83 84 85
3 28 87 86
3 87 25 104
3 86 104 6
3 104 86 87
3 25 87 84
3 87 28 81
3 84 81 26
3 81 84 87
3 0 89 88
3 89 28 93
3 88 93 27
3 93 88 89
3 28 86 94
3 86 6 90
3 94 90 39
3 90 94 86
3 27 92 91
3 92 39 136
3 91 136 5
3 136 91 92
3 39 92 94
3 92 27 93
3 94 93 28
3 93 94 92
3 1 96 102
3 96 30 95
3 102 95 31
3 95 102 96
3 30 99 98
3 99 2 97
3 98 97 29
3 97 98 99
3 31 101 100
3 101 29 117
3 100 117 7
3 117 100 101
3 29 101 98
3 101 31 95
3 98 95 30
3 95 98 101
3 1 102 83
3 102 31 106
3 83 106 25
3 106 83 102
3 31 100 107
3 100 7 103
3 107 103 43
3 103 107 100
3 25 105 104
3 105 43 149
3 104 149 6
3 149 104 105
3 43 105 107
3 105 25 106
3 107 106 31
3 106 107 105
3 2 109 115
3 109 33 108
3 115 108 34
3 108 115 109
3 33 112 111
3 112 3 110
3 111 110 32
3 110 111 112
3 34 114 113
3 114 32 125
3 113 125 8
3 125 113 114
3 32 114 111
3 114 34 108
3 111 108 33
3 108 111 114
3 2 115 97
3 115 34 119
3 97 119 29
3 119 97 115
3 34 113 120
3 113 8 116
3 120 116 46
3 116 120 113
3 29 118 117
3 118 46 161
3 117 161 7
3 161 117 118
3 46 118 120
3 118 29 119
3 120 119 34
3 119 120 118
3 3 121 110
3 121 36 127
3 110 127 32
3 127 110 121
3 36 124 123
3 124 4 122
3 123 122 35
3 122 123 124
3 32 126 125
3 126 35 129
3 125 129 8
3 129 125 126
3 35 126 123
3 126 32 127
3 123 127 36
3 127 123 126
3 8 129 173
3 129 35 128
3 173 128 49
3 128 173 129
3 35 122 133
3 122 4 130
3 133 130 37
3 130 133 122
3 49 134 132
3 134 37 131
3 132 131 9
3 131 132 134
3 37 134 133
3 134 49 128
3 133 128 35
3 128 133 134
3 5 136 142
3 136 39 135
3 142 135 41
3 135 142 136
3 39 90 138
3 90 6 137
3 138 137 38
3 137 138 90
3 41 140 139
3 140 38 156
3 139 156 11
3 156 139 140
3 38 140 138
3 140 41 135
3 138 135 39
3 135 138 140
3 5 142 141
3 142 41 146
3 141 146 40
3 146 141 142
3 41 139 147
3 139 11 143
3 147 143 52
3 143 147 139
3 40 145 144
3 145 52 186
3 144 186 10
3 186 144 145
3 52 145 147
3 145 40 146
3 147 146 41
3 146 147 145
3 6 149 154
3 149 43 148
3 154 148 44
3 148 154 149
3 43 103 151
3 103 7 150
3 151 150 42
3 150 151 103
3 44 153 152
3 153 42 168
3 152 168 12
3 168 152 153
3 42 153 151
3 153 44 148
3 151 148 43
3 148 151 153
3 6 154 137
3 154 44 158
3 137 158 38
3 158 137 154
3 44 152 159
3 152 12 155
3 159 155 56
3 155 159 152
3 38 157 156
3 157 56 199
3 156 199 11
3 199 156 157
3 56 157 159
3 157 38 158
3 159 158 44
3 158 159 157
3 7 161 166
3 161 46 160
3 166 160 47
3 160 166 161
3 46 116 163
3 116 8 162
3 163 162 45
3 162 163 116
3 47 165 164
3 165 45 181
3 164 181 13
3 181 164 165
3 45 165 163
3 165 47 160
3 163 160 46
3 160 163 165
3 7 166 150
3 166 47 170
3 150 170 42
3 170 150 166
3 47 164 171
3 164 13 167
3 171 167 59
3 167 171 164
3 42 169 168
3 169 59 211
3 168 211 12
3 211 168 169
3 59 169 171
3 169 42 170
3 171 170 47
3 170 171 169
3 8 173 179
3 173 49 172
3 179 172 50
3 172 179 173
3 49 132 175
3 132 9 174
3 175 174 48
3 174 175 132
3 50 178 177
3 178 48 176
3 177 176 14
3 176 177 178
3 48 178 175
3 178 50 172
3 175 172 49
3 172 175 178
3 8 179 162
3 179 50 183
3 162 183 45
3 183 162 179
3 50 177 184
3 177 14 180
3 184 180 62
3 180 184 177
3 45 182 181
3 182 62 223
3 181 223 13
3 223 181 182
3 62 182 184
3 182 45 183
3 184 183 50
3 183 184 182
3 10 186 192
3 186 52 185
3 192 185 54
3 185 192 186
3 52 143 188
3 143 11 187
3 188 187 51
3 187 188 143
3 54 190 189
3 190 51 206
3 189 206 16
3 206 189 190
3 51 190 188
3 190 54 185
3 188 185 52
3 185 188 190
3 10 192 191
3 192 54 196
3 191 196 53
3 196 191 192
3 54 189 197
3 189 16 193
3 197 193 66
3 193 197 189
3 53 195 194
3 195 66 236
3 194 236 15
3 236 194 195
3 66 195 197
3 195 53 196
3 197 196 54
3 196 197 195
3 11 199 204
3 199 56 198
3 204 198 57
3 198 204 199
3 56 155 201
3 155 12 200
3 201 200 55
3 200 201 155
3 57 203 202
3 203 55 218
3 202 218 17
3 218 202 203
3 55 203 201
3 203 57 198
3 201 198 56
3 198 201 203
3 11 204 187
3 204 57 208
3 187 208 51
3 208 187 204
3 57 202 209
3 202 17 205
3 209 205 70
3 205 209 202
3 51 207 206
3 207 70 250
3 206 250 16
3 250 206 207
3 70 207 209
3 207 51 208
3 209 208 57
3 208 209 207
3 12 211 216
3 211 59 210
3 216 210 60
3 210 216 211
3 59 167 213
3 167 13 212
3 213 212 58
3 212 213 167
3 60 215 214
3 215 58 231
3 214 231 18
3 231 214 215
3 58 215 213
3 215 60 210
3 213 210 59
3 210 213 215
3 12 216 200
3 216 60 220
3 200 220 55
3 220 200 216
3 60 214 221
3 214 18 217
3 221 217 74
3 217 221 214
3 55 219 218
3 219 74 263
3 218 263 17
3 263 218 219
3 74 219 221
3 219 55 220
3 221 220 60
3 220 221 219
3 13 223 229
3 223 62 222
3 229 222 63
3 222 229 223
3 62 180 225
3 180 14 224
3 225 224 61
3 224 225 180
3 63 228 227
3 228 61 226
3 227 226 19
3 226 227 228
3 61 228 225
3 228 63 222
3 225 222 62
3 222 225 228
3 13 229 212
3 229 63 233
3 212 233 58
3 233 212 229
3 63 227 234
3 227 19 230
3 234 230 78
3 230 234 227
3 58 232 231
3 232 78 276
3 231 276 18
3 276 231 232
3 78 232 234
3 232 58 233
3 234 233 63
3 233 234 232
3 15 236 235
3 236 66 240
3 235 240 65
3 240 235 236
3 66 193 238
3 193 16 237
3 238 237 64
3 237 238 193
3 65 241 239
3 241 64 244
3 239 244 20
3 244 239 241
3 64 241 238
3 241 65 240
3 238 240 66
3 240 238 241
3 20 244 243
3 244 64 242
3 243 242 68
3 242 243 244
3 64 237 247
3 237 16 245
3 247 245 67
3 245 247 237
3 68 248 246
3 248 67 259
3 246 259 21
3 259 246 248
3 67 248 247
3 248 68 242
3 247 242 64
3 242 247 248
3 16 250 255
3 250 70 249
3 255 249 72
3 249 255 250
3 70 205 252
3 205 17 251
3 252 251 69
3 251 252 205
3 72 254 253
3 254 69 272
3 253 272 22
3 272 253 254
3 69 254 252
3 254 72 249
3 252 249 70
3 249 252 254
3 16 255 245
3 255 72 261
3 245 261 67
3 261 245 255
3 72 253 257
3 253 22 256
3 257 256 71
3 256 257 253
3 67 260 259
3 260 71 258
3 259 258 21
3 258 259 260
3 71 260 257
3 260 67 261
3 257 261 72
3 261 257 260
3 17 263 268
3 263 74 262
3 268 262 76
3 262 268 263
3 74 217 265
3 217 18 264
3 265 264 73
3 264 265 217
3 76 267 266
3 267 73 286
3 266 286 23
3 286 266 267
3 73 267 265
3 267 76 262
3 265 262 74
3 262 265 267
3 17 268 251
3 268 76 274
3 251 274 69
3 274 251 268
3 76 266 270
3 266 23 269
3 270 269 75
3 269 270 266
3 69 273 272
3 273 75 271
3 272 271 22
3 271 272 273
3 75 273 270
3 273 69 274
3 270 274 76
3 274 270 273
3 18 276 282
3 276 78 275
3 282 275 80
3 275 282 276
3 78 230 278
3 230 19 277
3 278 277 77
3 277 278 230
3 80 281 280
3 281 77 279
3 280 279 24
3 279 280 281
3 77 281 278
3 281 80 275
3 278 275 78
3 275 278 281
3 18 282 264
3 282 80 288
3 264 288 73
3 288 264 282
3 80 280 284
3 280 24 283
3 284 283 79
3 283 284 280
3 73 287 286
3 287 79 285
3 286 285 23
3 285 286 287
3 79 287 284
3 287 73 288
3 284 288 80
3 288 284 287
2 0 82
2 82 26
2 26 85
2 85 1
2 27 88
2 88 0
2 5 91
2 91 27
2 1 96
2 96 30
2 30 99
2 99 2
2 2 109
2 109 33
2 33 112
2 112 3
2 3 121
2 121 36
2 36 124
2 124 4
2 4 130
2 130 37
2 37 131
2 131 9
2 40 141
2 141 5
2 10 144
2 144 40
2 9 174
2 174 48
2 48 176
2 176 14
2 53 191
2 191 10
2 15 194
2 194 53
2 14 224
2 224 61
2 61 226
2 226 19
2 65 235
2 235 15
2 20 239
2 239 65
2 68 243
2 243 20
2 21 246
2 246 68
2 22 256
2 256 71
2 71 258
2 258 21
2 23 269
2 269 75
2 75 271
2 271 22
2 19 277
2 277 77
2 77 279
2 279 24
2 24 283
2 283 79
2 79 285
2 285 23

CELL_TYPES 576
5 5 5 5 5 5 5 5 5 5 5 5 5 5 5 5 5 5 5 5 5 5 5 5 5 5 5 5 5 5 5 5 5 5 5 5 5 5 5 5 5 5 5 5 5 5 5 5 5 5 5 5 5 5 5 5 5 5 5 5 5 5 5 5 5 5 5 5 5 5 5 5 5 5 5 5 5 5 5 5 5 5 5 5 5 5 5 5 5 5 5 5 5 5 5 5 5 5 5 5 5 5 5 5 5 5 5 5 5 5 5 5 5 5 5 5 5 5 5 5 5 5 5 5 5 5 5 5 5 5 5 5 5 5 5 5 5 5 5 5 5 5 5 5 5 5 5 5 5 5 5 5 5 5 5 5 5 5 5 5 5 5 5 5 5 5 5 5 5 5 5 5 5 5 5 5 5 5 5 5 5 5 5 5 5 5 5 5 5 5 5 5 5 5 5 5 5 5 5 5 5 5 5 5 5 5 5 5 5 5 5 5 5 5 5 5 5 5 5 5 5 5 5 5 5 5 5 5 5 5 5 5 5 5 5 5 5 5 5 5 5 5 5 5 5 5 5 5 5 5 5 5 5 5 5 5 5 5 5 5 5 5 5 5 5 5 5 5 5 5 5 5 5 5 5 5 5 5 5 5 5 5 5 5 5 5 5 5 5 5 5 5 5 5 5 5 5 5 5 5 5 5 5 5 5 5 5 5 5 5 5 5 5 5 5 5 5 5 5 5 5 5 5 5 5 5 5 5 5 5 5 5 5 5 5 5 5 5 5 5 5 5 5 5 5 5 5 5 5 5 5 5 5 5 5 5 5 5 5 5 5 5 5 5 5 5 5 5 5 5 5 5 5 5 5 5 5 5 5 5 5 5 5 5 5 5 5 5 5 5 5 5 5 5 5 5 5 5 5 5 5 5 5 5 5 5 5 5 5 5 5 5 5 5 5 5 5 5 5 5 5 5 5 5 5 5 5 5 5 5 5 5 5 5 5 5 5 5 5 5 5 5 5 5 5 5 5 5 5 5 5 5 5 5 5 5 5 5 5 5 5 5 5 5 5 5 5 5 5 5 5 5 5 5 5 5 5 5 5 5 5 5 5 5 5 5 5 5 5 5 5 5 5 5 5 5 5 5 5 5 5 5 5 5 5 5 5 5 5 5 5 5 3 3 3 3 3 3 3 3 3 3 3 3 3 3 3 3 3 3 3 3 3 3 3 3 3 3 3 3 3 3 3 3 3 3 3 3 3 3 3 3 3 3 3 3 3 3 3 3 3 3 3 3 3 3 3 3 3 3 3 3 3 3 3 3 
CELL_DATA 576
Scalars  Label int 1
LOOKUP_TABLE FreeFempp_table
0
0
0
0
0
0
0
0
0
0
0
0
0
0
0
0
0
0
0
0
0
0
0
0
0
0
0
0
0
0
0
0
0
0
0
0
0
0
0
0
0
0
0
0
0
0
0
0
0
0
0
0
0
0
0
0
0
0
0
0
0
0
0
0
0
0
0
0
0
0
0
0
0
0
0
0
0
0
0
0
0
0
0
0
0
0
0
0
0
0
0
0
0
0
0
0
0
0
0
0
0
0
0
0
0
0
0
0
0
0
0
0
0
0
0
0
0
0
0
0
0
0
0
0
0
0
0
0
0
0
0
0
0
0
0
0
0
0
0
0
0
0
0
0
0
0
0
0
0
0
0
0
0
0
0
0
0
0
0
0
0
0
0
0
0
0
0
0
0
0
0
0
0
0
0
0
0
0
0
0
0
0
0
0
0
0
0
0
0
0
0
0
0
0
0
0
0
0
0
0
0
0
0
0
0
0
0
0
0
0
0
0
0
0
0
0
0
0
0
0
0
0
0
0
0
0
0
0
0
0
0
0
0
0
0
0
0
0
0
0
0
0
0
0
0
0
0
0
0
0
0
0
0
0
0
0
0
0
0
0
0
0
0
0
0
0
0
0
0
0
0
0
0
0
0
0
0
0
0
0
0
0
0
0
0
0
0
0
0
0
0
0
0
0
0
0
0
0
0
0
0
0
0
0
0
0
0
0
0
0
0
0
0
0
0
0
0
0
0
0
0
0
0
0
0
0
0
0
0
0
0
0
0
0
0
0
0
0
0
0
0
0
0
0
0
0
0
0
0
0
0
0
0
0
0
0
0
0
0
0
0
0
0
0
0
0
0
0
0
0
0
0
0
0
0
0
0
0
0
0
0
0
0
0
0
0
0
0
0
0
0
0
0
0
0
0
0
0
0
0
0
0
0
0
0
0
0
0
0
0
0
0
0
0
0
0
0
0
0
0
0
0
0
0
0
0
0
0
0
0
0
0
0
0
0
0
0
0
0
0
0
0
0
0
0
0
0
0
0
0
0
0
0
0
0
0
0
0
0
0
0
0
0
0
0
0
0
0
0
0
0
0
0
0
0
0
0
0
0
0
0
0
0
0
0
0
0
0
0
0
0
0
0
0
0
0
0
0
0
0
0
0
0
0
0
0
0
0
0
0
0
0
1
1
1
1
4
4
4
4
1
1
1
1
1
1
1
1
1
1
1
1
2
2
2
2
4
4
4
4
2
2
2
2
4
4
4
4
2
2
2
2
4
4
4
4
3
3
3
3
3
3
3
3
3
3
3
3
2
2
2
2
3
3
3
3

LOOKUP_TABLE FreeFempp_table 5
1.00000000 0.00000000 0.00000000 1.00000000
1.00000000 1.00000000 0.00000000 1.00000000
1.00000000 0.00000000 1.00000000 1.00000000
0.00000000 1.00000000 0.00000000 1.00000000
0.00000000 1.00000000 1.00000000 1.00000000

FIELD FieldData 1
Pressure 1 576 float
1.31243899e-01 3.23227257e-01 3.20100427e-01 2.59646177e-01 5.02797067e-01 6.63052142e-01 6.56783879e-01 6.10844970e-01 4.88635212e-01 6.44501746e-01 6.26300395e-01 5.89992583e-01 6.03170097e-01 4.38139468e-01 4.43763316e-01 4.97995704e-01 6.55680671e-02 2.56316006e-01 6.46857992e-02 1.29940823e-01 4.28521514e-01 5.71360350e-01 4.14944500e-01 4.74790245e-01 6.32154122e-02 2.42669508e-01 6.11603111e-02 1.23778038e-01 3.05102080e-01 1.27444357e-01 3.14041615e-01 2.50650227e-01 7.97829688e-01 9.01947498e-01 8.93535674e-01 8.69086981e-01 9.71403301e-01 1.00352728e+00 9.94245827e-01 9.95016873e-01 9.44549501e-01 9.75854456e-01 9.48488176e-01 9.61486101e-01 9.82742608e-01 9.38554049e-01 9.50313032e-01 9.62385237e-01 7.54461527e-01 8.58291984e-01 7.45043993e-01 7.90345073e-01 9.18218732e-01 9.31327164e-01 8.89382660e-01 9.18027639e-01 7.28824675e-01 8.13250840e-01 7.05862880e-01 7.53770590e-01 8.52278173e-01 7.75621772e-01 8.76938045e-01 8.39657068e-01 9.97084320e-01 9.52320695e-01 9.43559170e-01 9.69450116e-01 8.70954812e-01 7.56114125e-01 7.49153733e-01 7.96257973e-01 8.47047091e-01 7.35354006e-01 7.14829266e-01 7.69559503e-01 7.86491930e-01 8.89117002e-01 9.00156617e-01 8.62948000e-01 1.00147939e+00 9.57546055e-01 9.89156902e-01 9.87890661e-01 8.69959772e-01 7.45532751e-01 8.42761457e-01 8.23374271e-01 9.67793226e-01 9.07567322e-01 9.37469184e-01 9.42485571e-01 9.00243342e-01 9.69646394e-01 9.26156938e-01 9.36891973e-01 6.63075209e-01 5.02815723e-01 6.56886101e-01 6.10891283e-01 3.23239774e-01 1.31249741e-01 3.20156932e-01 2.59666860e-01 6.44707620e-01 4.88813192e-01 6.26651645e-01 5.90236962e-01 4.38238144e-01 6.03297710e-01 4.43796754e-01 4.98077661e-01 5.71772397e-01 4.28727865e-01 4.15318072e-01 4.75119621e-01 2.56379455e-01 6.55741096e-02 6.47038594e-02 1.29966378e-01 2.42935508e-01 6.32558987e-02 6.12398684e-02 1.23901002e-01 1.27505213e-01 3.05359602e-01 3.14172685e-01 2.50790805e-01 1.18951991e-01 2.93304265e-01 2.78714776e-01 2.32400954e-01 4.56494927e-01 6.02225125e-01 5.72413027e-01 5.47336698e-01 4.07049179e-01 5.37108719e-01 4.96639580e-01 4.83853549e-01 5.18083096e-01 3.76167148e-01 3.97453964e-01 4.33852732e-01 5.85280471e-02 2.19913483e-01 5.53368516e-02 1.12994052e-01 3.51268888e-01 4.44972038e-01 3.22995871e-01 3.76333565e-01 5.16147651e-02 1.88746974e-01 4.73975688e-02 9.78955328e-02 2.41680339e-01 1.05953269e-01 2.61453122e-01 2.05315679e-01 7.24846959e-01 8.19619298e-01 7.79149115e-01 7.79165387e-01 8.82888258e-01 9.12218094e-01 8.67253423e-01 8.92372072e-01 7.87722647e-01 8.13963532e-01 7.52840042e-01 7.89278686e-01 8.44885230e-01 8.06764662e-01 8.52147043e-01 8.39333892e-01 6.76237702e-01 7.37631500e-01 6.40149117e-01 6.89016461e-01 7.53629208e-01 7.26073563e-01 6.93239152e-01 7.28530824e-01 5.97910464e-01 6.33756816e-01 5.49919844e-01 5.97910464e-01 6.76215827e-01 6.46573424e-01 7.31200337e-01 6.89009666e-01 9.06478584e-01 8.65884840e-01 8.23275685e-01 8.69674325e-01 7.91988850e-01 6.87627137e-01 6.53883874e-01 7.14489937e-01 7.06899881e-01 6.13853216e-01 5.67902088e-01 6.32230401e-01 6.76616490e-01 7.64746547e-01 8.07613909e-01 7.53060937e-01 8.98291588e-01 8.23467433e-01 8.50525856e-01 8.61832321e-01 7.14525521e-01 5.81748307e-01 6.57421291e-01 6.53929412e-01 7.94585824e-01 7.07814991e-01 7.30995595e-01 7.48207390e-01 7.14809954e-01 8.08912694e-01 7.72762477e-01 7.69345403e-01 5.56821942e-01 4.04612869e-01 3.84860128e-01 4.50444490e-01 2.36864671e-01 6.00154437e-02 5.71411774e-02 1.17794082e-01 2.11653903e-01 5.37173450e-02 4.97715436e-02 1.04405656e-01 1.11640625e-01 2.74451673e-01 2.89689749e-01 2.25348011e-01 5.93885839e-01 4.26671058e-01 5.62462926e-01 5.29557168e-01 2.56555647e-01 9.61570963e-02 2.36172155e-01 1.95905253e-01 5.25617957e-01 3.67020100e-01 4.83697295e-01 4.60025698e-01 3.34427208e-01 4.97193754e-01 3.61394018e-01 3.98774862e-01 8.89013931e-02 2.19592303e-01 1.95421547e-01 1.70375243e-01 3.42006981e-01 4.51398075e-01 4.01836783e-01 4.01821375e-01 2.63979524e-01 3.48464131e-01 2.91819036e-01 3.04524124e-01 3.54842037e-01 2.57504284e-01 2.91630775e-01 3.04421574e-01 4.27284315e-02 1.50399983e-01 3.76590416e-02 7.90673643e-02 2.20989272e-01 2.51367420e-01 1.82454094e-01 2.21102789e-01 3.22484784e-02 1.06540538e-01 2.65528224e-02 5.73345870e-02 1.41921133e-01 6.85063973e-02 1.69437796e-01 1.29048824e-01 5.43495715e-01 6.14721775e-01 5.47314227e-01 5.72405517e-01 6.62323415e-01 6.84465647e-01 6.09497964e-01 6.55875087e-01 5.11477649e-01 5.28659523e-01 4.42730278e-01 4.97265160e-01 5.79359591e-01 5.53082228e-01 6.26174092e-01 5.89738429e-01 4.96643722e-01 5.05554378e-01 4.38611358e-01 4.83862847e-01 4.74671960e-01 4.10384655e-01 3.91701728e-01 4.28298056e-01 3.76405418e-01 3.58014256e-01 3.10634166e-01 3.51353735e-01 3.97437066e-01 4.19604331e-01 4.74650353e-01 4.33858633e-01 6.80295229e-01 6.49971008e-01 5.78869402e-01 6.39465570e-01 5.94656587e-01 5.16473651e-01 4.60066319e-01 5.25657654e-01 4.59545225e-01 3.99224579e-01 3.34532529e-01 3.98866445e-01 4.64500695e-01 5.24818957e-01 5.93981981e-01 5.29653132e-01 6.60363734e-01 5.64954758e-01 5.83369911e-01 6.05828881e-01 4.50597972e-01 3.29384148e-01 3.72032195e-01 3.85006845e-01 5.00755787e-01 4.00370926e-01 4.13317978e-01 4.40158606e-01 4.20669943e-01 5.25525451e-01 5.02189755e-01 4.85000014e-01 4.18415636e-01 3.04226726e-01 2.71090478e-01 3.31720561e-01 1.78260013e-01 4.53435220e-02 4.04775515e-02 8.69781524e-02 1.37994751e-01 3.52210812e-02 2.96243951e-02 6.61986545e-02 7.69596770e-02 1.88778341e-01 2.13505283e-01 1.58893704e-01 4.37109709e-01 2.93221593e-01 3.86307925e-01 3.72770131e-01 1.62230462e-01 5.47972545e-02 1.34114191e-01 1.15763076e-01 3.31781805e-01 2.08135083e-01 2.74052858e-01 2.71169960e-01 1.97317854e-01 3.23530853e-01 2.35340059e-01 2.51895040e-01 2.36062296e-02 9.19283032e-02 1.75419860e-02 4.26394194e-02 1.56677738e-01 2.15357959e-01 1.15444347e-01 1.61687329e-01 1.12749934e-02 4.29998301e-02 4.85996203e-03 1.77323837e-02 7.39351884e-02 3.03697772e-02 1.04203790e-01 6.78517595e-02 4.85610357e-03 4.28046100e-02 1.11292247e-02 1.76018383e-02 1.14527628e-01 2.12891206e-01 1.50611475e-01 1.58486396e-01 1.69404056e-02 8.67957249e-02 2.20755544e-02 4.04129550e-02 9.99836326e-02 2.96064261e-02 7.29536936e-02 6.61166236e-02 2.79757112e-01 3.16417187e-01 2.32368469e-01 2.78743148e-01 3.41004223e-01 3.52541417e-01 2.58971572e-01 3.19560409e-01 1.57522216e-01 1.62940204e-01 6.53806329e-02 1.29675418e-01 2.25681916e-01 2.15335593e-01 3.04973662e-01 2.50447094e-01 2.41902113e-01 1.96801528e-01 1.70818567e-01 2.05469847e-01 1.23676896e-01 3.24650593e-02 3.08835655e-02 6.31395206e-02 9.80577394e-02 2.81354804e-02 2.43324321e-02 5.16684428e-02 5.85038327e-02 1.29191384e-01 1.46114826e-01 1.12994082e-01 3.50551933e-01 3.35093498e-01 2.46281222e-01 3.11882019e-01 3.06751192e-01 2.66605973e-01 1.96081161e-01 2.56714165e-01 1.42079040e-01 1.23606369e-01 4.98544052e-02 1.04545288e-01 1.81536302e-01 2.04902023e-01 2.89873421e-01 2.25520909e-01 3.21901947e-01 2.20384583e-01 2.27396637e-01 2.57572621e-01 1.17919885e-01 2.64711138e-02 2.97554284e-02 5.72115481e-02 1.30723119e-01 3.18948589e-02 3.28087807e-02 6.51228204e-02 6.23659641e-02 1.62123203e-01 1.55082285e-01 1.26757160e-01 2.16182813e-01 1.57381058e-01 1.15890913e-01 1.62350133e-01 9.24061909e-02 2.37396844e-02 1.76190231e-02 4.28601578e-02 4.31422219e-02 1.13126766e-02 4.87363758e-03 1.77879594e-02 3.04901693e-02 7.42134601e-02 1.04689345e-01 6.81317151e-02 2.13665158e-01 1.14950836e-01 1.51173010e-01 1.59076214e-01 4.29415107e-02 4.86961845e-03 1.11625204e-02 1.76535603e-02 8.71387199e-02 1.69999693e-02 2.21658628e-02 4.05711159e-02 2.97049638e-02 1.00360699e-01 7.32057989e-02 6.63493499e-02 1.31243899e-01 3.23227257e-01 5.02797067e-01 6.63052142e-01 6.46857992e-02 6.55680671e-02 6.11603111e-02 6.32154122e-02 7.97829688e-01 9.01947498e-01 9.71403301e-01 1.00352728e+00 9.97084320e-01 9.52320695e-01 8.70954812e-01 7.56114125e-01 6.63075209e-01 5.02815723e-01 3.23239774e-01 1.31249741e-01 6.55741096e-02 6.47038594e-02 6.32558987e-02 6.12398684e-02 5.53368516e-02 5.85280471e-02 4.73975688e-02 5.16147651e-02 6.00154437e-02 5.71411774e-02 5.37173450e-02 4.97715436e-02 3.76590416e-02 4.27284315e-02 2.65528224e-02 3.22484784e-02 4.53435220e-02 4.04775515e-02 3.52210812e-02 2.96243951e-02 1.75419860e-02 2.36062296e-02 4.85996203e-03 1.12749934e-02 1.11292247e-02 4.85610357e-03 2.20755544e-02 1.69404056e-02 3.24650593e-02 3.08835655e-02 2.81354804e-02 2.43324321e-02 2.64711138e-02 2.97554284e-02 3.18948589e-02 3.28087807e-02 2.37396844e-02 1.76190231e-02 1.13126766e-02 4.87363758e-03 4.86961845e-03 1.11625204e-02 1.69999693e-02 2.21658628e-02 
POINT_DATA 289
FIELD FieldData 2
Velocity 3 289 float