# vtk DataFile Version 2.0
./pics/Solution_1_10.vtk, Created by Freefem++ 
ASCII
DATASET UNSTRUCTURED_GRID
POINTS 289 float
0 0 0
0.25 0 0
0.5 0 0
0.75 0 0
1 0 0
0 0.25 0
0.25 0.25 0
0.5 0.25 0
0.75 0.25 0
1 0.25 0
0 0.5 0
0.25 0.5 0
0.5 0.5 0
0.75 0.5 0
1 0.5 0
0 0.75 0
0.25 0.75 0
0.5 0.75 0
0.75 0.75 0
1 0.75 0
0 1 0
0.25 1 0
0.5 1 0
0.75 1 0
1 1 0
0.25 0.125 0
0.125 0 0
0 0.125 0
0.125 0.125 0
0.5 0.125 0
0.375 0 0
0.375 0.125 0
0.75 0.125 0
0.625 0 0
0.625 0.125 0
0.875 0.125 0
0.875 0 0
1 0.125 0
0.25 0.375 0
0.125 0.25 0
0 0.375 0
0.125 0.375 0
0.5 0.375 0
0.375 0.25 0
0.375 0.375 0
0.75 0.375 0
0.625 0.25 0
0.625 0.375 0
1 0.375 0
0.875 0.25 0
0.875 0.375 0
0.25 0.625 0
0.125 0.5 0
0 0.625 0
0.125 0.625 0
0.5 0.625 0
0.375 0.5 0
0.375 0.625 0
0.75 0.625 0
0.625 0.5 0
0.625 0.625 0
1 0.625 0
0.875 0.5 0
0.875 0.625 0
0.125 0.875 0
0 0.875 0
0.125 0.75 0
0.25 0.875 0
0.125 1 0
0.5 0.875 0
0.375 0.75 0
0.375 1 0
0.375 0.875 0
0.75 0.875 0
0.625 0.75 0
0.625 1 0
0.625 0.875 0
1 0.875 0
0.875 0.75 0
0.875 1 0
0.875 0.875 0
0.125 0.0625 0
0.0625 0 0
0.25 0.0625 0
0.1875 0.0625 0
0.1875 0 0
0.1875 0.1875 0
0.1875 0.125 0
0 0.0625 0
0.0625 0.0625 0
0.1875 0.25 0
0 0.1875 0
0.0625 0.1875 0
0.0625 0.125 0
0.125 0.1875 0
0.375 0.0625 0
0.3125 0 0
0.5 0.0625 0
0.4375 0.0625 0
0.4375 0 0
0.4375 0.1875 0
0.4375 0.125 0
0.3125 0.0625 0
0.4375 0.25 0
0.25 0.1875 0
0.3125 0.1875 0
0.3125 0.125 0
0.375 0.1875 0
0.625 0.0625 0
0.5625 0 0
0.75 0.0625 0
0.6875 0.0625 0
0.6875 0 0
0.6875 0.1875 0
0.6875 0.125 0
0.5625 0.0625 0
0.6875 0.25 0
0.5 0.1875 0
0.5625 0.1875 0
0.5625 0.125 0
0.625 0.1875 0
0.8125 0 0
0.9375 0.0625 0
0.875 0.0625 0
0.9375 0 0
0.75 0.1875 0
0.8125 0.125 0
0.8125 0.0625 0
0.875 0.1875 0
0.8125 0.1875 0
1 0.0625 0
1 0.1875 0
0.9375 0.25 0
0.9375 0.125 0
0.9375 0.1875 0
0.125 0.3125 0
0.0625 0.25 0
0.25 0.3125 0
0.1875 0.3125 0
0.1875 0.4375 0
0.1875 0.375 0
0 0.3125 0
0.0625 0.3125 0
0.1875 0.5 0
0 0.4375 0
0.0625 0.4375 0
0.0625 0.375 0
0.125 0.4375 0
0.375 0.3125 0
0.3125 0.25 0
0.5 0.3125 0
0.4375 0.3125 0
0.4375 0.4375 0
0.4375 0.375 0
0.3125 0.3125 0
0.4375 0.5 0
0.25 0.4375 0
0.3125 0.4375 0
0.3125 0.375 0
0.375 0.4375 0
0.625 0.3125 0
0.5625 0.25 0
0.75 0.3125 0
0.6875 0.3125 0
0.6875 0.4375 0
0.6875 0.375 0
0.5625 0.3125 0
0.6875 0.5 0
0.5 0.4375 0
0.5625 0.4375 0
0.5625 0.375 0
0.625 0.4375 0
0.875 0.3125 0
0.8125 0.25 0
1 0.3125 0
0.9375 0.3125 0
1 0.4375 0
0.9375 0.4375 0
0.9375 0.375 0
0.8125 0.3125 0
0.9375 0.5 0
0.75 0.4375 0
0.8125 0.4375 0
0.8125 0.375 0
0.875 0.4375 0
0.125 0.5625 0
0.0625 0.5 0
0.25 0.5625 0
0.1875 0.5625 0
0.1875 0.6875 0
0.1875 0.625 0
0 0.5625 0
0.0625 0.5625 0
0.1875 0.75 0
0 0.6875 0
0.0625 0.6875 0
0.0625 0.625 0
0.125 0.6875 0
0.375 0.5625 0
0.3125 0.5 0
0.5 0.5625 0
0.4375 0.5625 0
0.4375 0.6875 0
0.4375 0.625 0
0.3125 0.5625 0
0.4375 0.75 0
0.25 0.6875 0
0.3125 0.6875 0
0.3125 0.625 0
0.375 0.6875 0
0.625 0.5625 0
0.5625 0.5 0
0.75 0.5625 0
0.6875 0.5625 0
0.6875 0.6875 0
0.6875 0.625 0
0.5625 0.5625 0
0.6875 0.75 0
0.5 0.6875 0
0.5625 0.6875 0
0.5625 0.625 0
0.625 0.6875 0
0.875 0.5625 0
0.8125 0.5 0
1 0.5625 0
0.9375 0.5625 0
1 0.6875 0
0.9375 0.6875 0
0.9375 0.625 0
0.8125 0.5625 0
0.9375 0.75 0
0.75 0.6875 0
0.8125 0.6875 0
0.8125 0.625 0
0.875 0.6875 0
0 0.8125 0
0.0625 0.75 0
0.1875 0.8125 0
0.125 0.8125 0
0 0.9375 0
0.0625 0.8125 0
0.0625 0.875 0
0.125 0.9375 0
0.0625 1 0
0.0625 0.9375 0
0.25 0.8125 0
0.1875 1 0
0.1875 0.875 0
0.1875 0.9375 0
0.375 0.8125 0
0.3125 0.75 0
0.5 0.8125 0
0.4375 0.8125 0
0.4375 0.9375 0
0.4375 0.875 0
0.3125 0.8125 0
0.4375 1 0
0.375 0.9375 0
0.3125 1 0
0.25 0.9375 0
0.3125 0.9375 0
0.3125 0.875 0
0.625 0.8125 0
0.5625 0.75 0
0.75 0.8125 0
0.6875 0.8125 0
0.6875 0.9375 0
0.6875 0.875 0
0.5625 0.8125 0
0.6875 1 0
0.625 0.9375 0
0.5625 1 0
0.5 0.9375 0
0.5625 0.9375 0
0.5625 0.875 0
0.875 0.8125 0
0.8125 0.75 0
1 0.8125 0
0.9375 0.8125 0
1 0.9375 0
0.9375 0.9375 0
0.9375 0.875 0
0.8125 0.8125 0
0.9375 1 0
0.875 0.9375 0
0.8125 1 0
0.75 0.9375 0
0.8125 0.9375 0
0.8125 0.875 0

CELLS 576 2240
3 0 82 89
3 82 26 81
3 89 81 28
3 81 89 82
3 26 85 84
3 85 1 83
3 84 83 25
3 83 84 85
3 28 87 86
3 87 25 104
3 86 104 6
3 104 86 87
3 25 87 84
3 87 28 81
3 84 81 26
3 81 84 87
3 0 89 88
3 89 28 93
3 88 93 27
3 93 88 89
3 28 86 94
3 86 6 90
3 94 90 39
3 90 94 86
3 27 92 91
3 92 39 136
3 91 136 5
3 136 91 92
3 39 92 94
3 92 27 93
3 94 93 28
3 93 94 92
3 1 96 102
3 96 30 95
3 102 95 31
3 95 102 96
3 30 99 98
3 99 2 97
3 98 97 29
3 97 98 99
3 31 101 100
3 101 29 117
3 100 117 7
3 117 100 101
3 29 101 98
3 101 31 95
3 98 95 30
3 95 98 101
3 1 102 83
3 102 31 106
3 83 106 25
3 106 83 102
3 31 100 107
3 100 7 103
3 107 103 43
3 103 107 100
3 25 105 104
3 105 43 149
3 104 149 6
3 149 104 105
3 43 105 107
3 105 25 106
3 107 106 31
3 106 107 105
3 2 109 115
3 109 33 108
3 115 108 34
3 108 115 109
3 33 112 111
3 112 3 110
3 111 110 32
3 110 111 112
3 34 114 113
3 114 32 125
3 113 125 8
3 125 113 114
3 32 114 111
3 114 34 108
3 111 108 33
3 108 111 114
3 2 115 97
3 115 34 119
3 97 119 29
3 119 97 115
3 34 113 120
3 113 8 116
3 120 116 46
3 116 120 113
3 29 118 117
3 118 46 161
3 117 161 7
3 161 117 118
3 46 118 120
3 118 29 119
3 120 119 34
3 119 120 118
3 3 121 110
3 121 36 127
3 110 127 32
3 127 110 121
3 36 124 123
3 124 4 122
3 123 122 35
3 122 123 124
3 32 126 125
3 126 35 129
3 125 129 8
3 129 125 126
3 35 126 123
3 126 32 127
3 123 127 36
3 127 123 126
3 8 129 173
3 129 35 128
3 173 128 49
3 128 173 129
3 35 122 133
3 122 4 130
3 133 130 37
3 130 133 122
3 49 134 132
3 134 37 131
3 132 131 9
3 131 132 134
3 37 134 133
3 134 49 128
3 133 128 35
3 128 133 134
3 5 136 142
3 136 39 135
3 142 135 41
3 135 142 136
3 39 90 138
3 90 6 137
3 138 137 38
3 137 138 90
3 41 140 139
3 140 38 156
3 139 156 11
3 156 139 140
3 38 140 138
3 140 41 135
3 138 135 39
3 135 138 140
3 5 142 141
3 142 41 146
3 141 146 40
3 146 141 142
3 41 139 147
3 139 11 143
3 147 143 52
3 143 147 139
3 40 145 144
3 145 52 186
3 144 186 10
3 186 144 145
3 52 145 147
3 145 40 146
3 147 146 41
3 146 147 145
3 6 149 154
3 149 43 148
3 154 148 44
3 148 154 149
3 43 103 151
3 103 7 150
3 151 150 42
3 150 151 103
3 44 153 152
3 153 42 168
3 152 168 12
3 168 152 153
3 42 153 151
3 153 44 148
3 151 148 43
3 148 151 153
3 6 154 137
3 154 44 158
3 137 158 38
3 158 137 154
3 44 152 159
3 152 12 155
3 159 155 56
3 155 159 152
3 38 157 156
3 157 56 199
3 156 199 11
3 199 156 157
3 56 157 159
3 157 38 158
3 159 158 44
3 158 159 157
3 7 161 166
3 161 46 160
3 166 160 47
3 160 166 161
3 46 116 163
3 116 8 162
3 163 162 45
3 162 163 116
3 47 165 164
3 165 45 181
3 164 181 13
3 181 164 165
3 45 165 163
3 165 47 160
3 163 160 46
3 160 163 165
3 7 166 150
3 166 47 170
3 150 170 42
3 170 150 166
3 47 164 171
3 164 13 167
3 171 167 59
3 167 171 164
3 42 169 168
3 169 59 211
3 168 211 12
3 211 168 169
3 59 169 171
3 169 42 170
3 171 170 47
3 170 171 169
3 8 173 179
3 173 49 172
3 179 172 50
3 172 179 173
3 49 132 175
3 132 9 174
3 175 174 48
3 174 175 132
3 50 178 177
3 178 48 176
3 177 176 14
3 176 177 178
3 48 178 175
3 178 50 172
3 175 172 49
3 172 175 178
3 8 179 162
3 179 50 183
3 162 183 45
3 183 162 179
3 50 177 184
3 177 14 180
3 184 180 62
3 180 184 177
3 45 182 181
3 182 62 223
3 181 223 13
3 223 181 182
3 62 182 184
3 182 45 183
3 184 183 50
3 183 184 182
3 10 186 192
3 186 52 185
3 192 185 54
3 185 192 186
3 52 143 188
3 143 11 187
3 188 187 51
3 187 188 143
3 54 190 189
3 190 51 206
3 189 206 16
3 206 189 190
3 51 190 188
3 190 54 185
3 188 185 52
3 185 188 190
3 10 192 191
3 192 54 196
3 191 196 53
3 196 191 192
3 54 189 197
3 189 16 193
3 197 193 66
3 193 197 189
3 53 195 194
3 195 66 236
3 194 236 15
3 236 194 195
3 66 195 197
3 195 53 196
3 197 196 54
3 196 197 195
3 11 199 204
3 199 56 198
3 204 198 57
3 198 204 199
3 56 155 201
3 155 12 200
3 201 200 55
3 200 201 155
3 57 203 202
3 203 55 218
3 202 218 17
3 218 202 203
3 55 203 201
3 203 57 198
3 201 198 56
3 198 201 203
3 11 204 187
3 204 57 208
3 187 208 51
3 208 187 204
3 57 202 209
3 202 17 205
3 209 205 70
3 205 209 202
3 51 207 206
3 207 70 250
3 206 250 16
3 250 206 207
3 70 207 209
3 207 51 208
3 209 208 57
3 208 209 207
3 12 211 216
3 211 59 210
3 216 210 60
3 210 216 211
3 59 167 213
3 167 13 212
3 213 212 58
3 212 213 167
3 60 215 214
3 215 58 231
3 214 231 18
3 231 214 215
3 58 215 213
3 215 60 210
3 213 210 59
3 210 213 215
3 12 216 200
3 216 60 220
3 200 220 55
3 220 200 216
3 60 214 221
3 214 18 217
3 221 217 74
3 217 221 214
3 55 219 218
3 219 74 263
3 218 263 17
3 263 218 219
3 74 219 221
3 219 55 220
3 221 220 60
3 220 221 219
3 13 223 229
3 223 62 222
3 229 222 63
3 222 229 223
3 62 180 225
3 180 14 224
3 225 224 61
3 224 225 180
3 63 228 227
3 228 61 226
3 227 226 19
3 226 227 228
3 61 228 225
3 228 63 222
3 225 222 62
3 222 225 228
3 13 229 212
3 229 63 233
3 212 233 58
3 233 212 229
3 63 227 234
3 227 19 230
3 234 230 78
3 230 234 227
3 58 232 231
3 232 78 276
3 231 276 18
3 276 231 232
3 78 232 234
3 232 58 233
3 234 233 63
3 233 234 232
3 15 236 235
3 236 66 240
3 235 240 65
3 240 235 236
3 66 193 238
3 193 16 237
3 238 237 64
3 237 238 193
3 65 241 239
3 241 64 244
3 239 244 20
3 244 239 241
3 64 241 238
3 241 65 240
3 238 240 66
3 240 238 241
3 20 244 243
3 244 64 242
3 243 242 68
3 242 243 244
3 64 237 247
3 237 16 245
3 247 245 67
3 245 247 237
3 68 248 246
3 248 67 259
3 246 259 21
3 259 246 248
3 67 248 247
3 248 68 242
3 247 242 64
3 242 247 248
3 16 250 255
3 250 70 249
3 255 249 72
3 249 255 250
3 70 205 252
3 205 17 251
3 252 251 69
3 251 252 205
3 72 254 253
3 254 69 272
3 253 272 22
3 272 253 254
3 69 254 252
3 254 72 249
3 252 249 70
3 249 252 254
3 16 255 245
3 255 72 261
3 245 261 67
3 261 245 255
3 72 253 257
3 253 22 256
3 257 256 71
3 256 257 253
3 67 260 259
3 260 71 258
3 259 258 21
3 258 259 260
3 71 260 257
3 260 67 261
3 257 261 72
3 261 257 260
3 17 263 268
3 263 74 262
3 268 262 76
3 262 268 263
3 74 217 265
3 217 18 264
3 265 264 73
3 264 265 217
3 76 267 266
3 267 73 286
3 266 286 23
3 286 266 267
3 73 267 265
3 267 76 262
3 265 262 74
3 262 265 267
3 17 268 251
3 268 76 274
3 251 274 69
3 274 251 268
3 76 266 270
3 266 23 269
3 270 269 75
3 269 270 266
3 69 273 272
3 273 75 271
3 272 271 22
3 271 272 273
3 75 273 270
3 273 69 274
3 270 274 76
3 274 270 273
3 18 276 282
3 276 78 275
3 282 275 80
3 275 282 276
3 78 230 278
3 230 19 277
3 278 277 77
3 277 278 230
3 80 281 280
3 281 77 279
3 280 279 24
3 279 280 281
3 77 281 278
3 281 80 275
3 278 275 78
3 275 278 281
3 18 282 264
3 282 80 288
3 264 288 73
3 288 264 282
3 80 280 284
3 280 24 283
3 284 283 79
3 283 284 280
3 73 287 286
3 287 79 285
3 286 285 23
3 285 286 287
3 79 287 284
3 287 73 288
3 284 288 80
3 288 284 287
2 0 82
2 82 26
2 26 85
2 85 1
2 27 88
2 88 0
2 5 91
2 91 27
2 1 96
2 96 30
2 30 99
2 99 2
2 2 109
2 109 33
2 33 112
2 112 3
2 3 121
2 121 36
2 36 124
2 124 4
2 4 130
2 130 37
2 37 131
2 131 9
2 40 141
2 141 5
2 10 144
2 144 40
2 9 174
2 174 48
2 48 176
2 176 14
2 53 191
2 191 10
2 15 194
2 194 53
2 14 224
2 224 61
2 61 226
2 226 19
2 65 235
2 235 15
2 20 239
2 239 65
2 68 243
2 243 20
2 21 246
2 246 68
2 22 256
2 256 71
2 71 258
2 258 21
2 23 269
2 269 75
2 75 271
2 271 22
2 19 277
2 277 77
2 77 279
2 279 24
2 24 283
2 283 79
2 79 285
2 285 23

CELL_TYPES 576
5 5 5 5 5 5 5 5 5 5 5 5 5 5 5 5 5 5 5 5 5 5 5 5 5 5 5 5 5 5 5 5 5 5 5 5 5 5 5 5 5 5 5 5 5 5 5 5 5 5 5 5 5 5 5 5 5 5 5 5 5 5 5 5 5 5 5 5 5 5 5 5 5 5 5 5 5 5 5 5 5 5 5 5 5 5 5 5 5 5 5 5 5 5 5 5 5 5 5 5 5 5 5 5 5 5 5 5 5 5 5 5 5 5 5 5 5 5 5 5 5 5 5 5 5 5 5 5 5 5 5 5 5 5 5 5 5 5 5 5 5 5 5 5 5 5 5 5 5 5 5 5 5 5 5 5 5 5 5 5 5 5 5 5 5 5 5 5 5 5 5 5 5 5 5 5 5 5 5 5 5 5 5 5 5 5 5 5 5 5 5 5 5 5 5 5 5 5 5 5 5 5 5 5 5 5 5 5 5 5 5 5 5 5 5 5 5 5 5 5 5 5 5 5 5 5 5 5 5 5 5 5 5 5 5 5 5 5 5 5 5 5 5 5 5 5 5 5 5 5 5 5 5 5 5 5 5 5 5 5 5 5 5 5 5 5 5 5 5 5 5 5 5 5 5 5 5 5 5 5 5 5 5 5 5 5 5 5 5 5 5 5 5 5 5 5 5 5 5 5 5 5 5 5 5 5 5 5 5 5 5 5 5 5 5 5 5 5 5 5 5 5 5 5 5 5 5 5 5 5 5 5 5 5 5 5 5 5 5 5 5 5 5 5 5 5 5 5 5 5 5 5 5 5 5 5 5 5 5 5 5 5 5 5 5 5 5 5 5 5 5 5 5 5 5 5 5 5 5 5 5 5 5 5 5 5 5 5 5 5 5 5 5 5 5 5 5 5 5 5 5 5 5 5 5 5 5 5 5 5 5 5 5 5 5 5 5 5 5 5 5 5 5 5 5 5 5 5 5 5 5 5 5 5 5 5 5 5 5 5 5 5 5 5 5 5 5 5 5 5 5 5 5 5 5 5 5 5 5 5 5 5 5 5 5 5 5 5 5 5 5 5 5 5 5 5 5 5 5 5 5 5 5 5 5 5 5 5 5 5 5 5 5 5 5 5 5 5 5 5 5 5 5 5 5 5 5 5 5 5 5 5 3 3 3 3 3 3 3 3 3 3 3 3 3 3 3 3 3 3 3 3 3 3 3 3 3 3 3 3 3 3 3 3 3 3 3 3 3 3 3 3 3 3 3 3 3 3 3 3 3 3 3 3 3 3 3 3 3 3 3 3 3 3 3 3 
CELL_DATA 576
Scalars  Label int 1
LOOKUP_TABLE FreeFempp_table
0
0
0
0
0
0
0
0
0
0
0
0
0
0
0
0
0
0
0
0
0
0
0
0
0
0
0
0
0
0
0
0
0
0
0
0
0
0
0
0
0
0
0
0
0
0
0
0
0
0
0
0
0
0
0
0
0
0
0
0
0
0
0
0
0
0
0
0
0
0
0
0
0
0
0
0
0
0
0
0
0
0
0
0
0
0
0
0
0
0
0
0
0
0
0
0
0
0
0
0
0
0
0
0
0
0
0
0
0
0
0
0
0
0
0
0
0
0
0
0
0
0
0
0
0
0
0
0
0
0
0
0
0
0
0
0
0
0
0
0
0
0
0
0
0
0
0
0
0
0
0
0
0
0
0
0
0
0
0
0
0
0
0
0
0
0
0
0
0
0
0
0
0
0
0
0
0
0
0
0
0
0
0
0
0
0
0
0
0
0
0
0
0
0
0
0
0
0
0
0
0
0
0
0
0
0
0
0
0
0
0
0
0
0
0
0
0
0
0
0
0
0
0
0
0
0
0
0
0
0
0
0
0
0
0
0
0
0
0
0
0
0
0
0
0
0
0
0
0
0
0
0
0
0
0
0
0
0
0
0
0
0
0
0
0
0
0
0
0
0
0
0
0
0
0
0
0
0
0
0
0
0
0
0
0
0
0
0
0
0
0
0
0
0
0
0
0
0
0
0
0
0
0
0
0
0
0
0
0
0
0
0
0
0
0
0
0
0
0
0
0
0
0
0
0
0
0
0
0
0
0
0
0
0
0
0
0
0
0
0
0
0
0
0
0
0
0
0
0
0
0
0
0
0
0
0
0
0
0
0
0
0
0
0
0
0
0
0
0
0
0
0
0
0
0
0
0
0
0
0
0
0
0
0
0
0
0
0
0
0
0
0
0
0
0
0
0
0
0
0
0
0
0
0
0
0
0
0
0
0
0
0
0
0
0
0
0
0
0
0
0
0
0
0
0
0
0
0
0
0
0
0
0
0
0
0
0
0
0
0
0
0
0
0
0
0
0
0
0
0
0
0
0
0
0
0
0
0
0
0
0
0
0
0
0
0
0
0
0
0
0
0
0
0
0
0
0
0
0
0
0
0
0
0
0
0
0
0
0
0
0
0
0
0
0
0
0
0
0
0
0
0
0
0
0
0
0
0
0
0
0
0
1
1
1
1
4
4
4
4
1
1
1
1
1
1
1
1
1
1
1
1
2
2
2
2
4
4
4
4
2
2
2
2
4
4
4
4
2
2
2
2
4
4
4
4
3
3
3
3
3
3
3
3
3
3
3
3
2
2
2
2
3
3
3
3

LOOKUP_TABLE FreeFempp_table 5
1.00000000 0.00000000 0.00000000 1.00000000
1.00000000 1.00000000 0.00000000 1.00000000
1.00000000 0.00000000 1.00000000 1.00000000
0.00000000 1.00000000 0.00000000 1.00000000
0.00000000 1.00000000 1.00000000 1.00000000

FIELD FieldData 1
Pressure 1 576 float
1.31519914e-01 3.23902726e-01 3.20832163e-01 2.60211259e-01 5.03842771e-01 6.64426923e-01 6.58248067e-01 6.12154007e-01 4.89755273e-01 6.45955563e-01 6.27686441e-01 5.91323078e-01 6.04532599e-01 4.39143687e-01 4.44720745e-01 4.99117434e-01 6.57123998e-02 2.56914258e-01 6.48387522e-02 1.30241752e-01 4.29508418e-01 5.72623670e-01 4.15887088e-01 4.75863457e-01 6.33673593e-02 2.43240133e-01 6.13072328e-02 1.24074750e-01 3.05813491e-01 1.27749443e-01 3.14778388e-01 2.51243055e-01 7.99480975e-01 9.03812528e-01 8.95510375e-01 8.70937943e-01 9.73410726e-01 1.00560021e+00 9.96436834e-01 9.97131765e-01 9.46647525e-01 9.78018522e-01 9.50543165e-01 9.63605225e-01 9.84925449e-01 9.40641880e-01 9.52334523e-01 9.64508474e-01 7.56071866e-01 8.60205829e-01 7.46712685e-01 7.92097032e-01 9.20246303e-01 9.33329105e-01 8.91298592e-01 9.20020342e-01 7.30448663e-01 8.15009117e-01 7.07400203e-01 7.55420268e-01 8.54133427e-01 7.77356148e-01 8.78890514e-01 8.41516852e-01 9.99143183e-01 9.54286814e-01 9.45635676e-01 9.71508503e-01 8.72753620e-01 7.57678390e-01 7.50814915e-01 7.97953010e-01 8.48925769e-01 7.36998975e-01 7.16388583e-01 7.71262825e-01 7.88245499e-01 8.91089499e-01 9.02068496e-01 8.64850104e-01 1.00360668e+00 9.59668756e-01 9.91351426e-01 9.90065634e-01 8.71873558e-01 7.47137427e-01 8.44567120e-01 8.25156212e-01 9.69923019e-01 9.09511864e-01 9.39480782e-01 9.44524229e-01 9.02188540e-01 9.71793830e-01 9.28206682e-01 9.38951373e-01 6.64450526e-01 5.03863275e-01 6.58352971e-01 6.12202644e-01 3.23917091e-01 1.31526589e-01 3.20895255e-01 2.60234952e-01 6.46164298e-01 4.89941239e-01 6.28031969e-01 5.91570973e-01 4.39251155e-01 6.04665816e-01 4.44758117e-01 4.99206662e-01 5.73024094e-01 4.29719865e-01 4.16244268e-01 4.76187110e-01 2.56983846e-01 6.57192692e-02 6.48582876e-02 1.30270034e-01 2.43487060e-01 6.34073466e-02 6.13795444e-02 1.24189645e-01 1.27811685e-01 3.06060910e-01 3.14915270e-01 2.51384884e-01 1.19237415e-01 2.93983936e-01 2.79363215e-01 2.32947230e-01 4.57512915e-01 6.03533685e-01 5.73646963e-01 5.48530400e-01 4.07959312e-01 5.38267136e-01 4.97717619e-01 4.84909713e-01 5.19209206e-01 3.77016991e-01 3.98349702e-01 4.34817195e-01 5.86693883e-02 2.20435515e-01 5.54725230e-02 1.13268077e-01 3.52070898e-01 4.45953310e-01 3.23746651e-01 3.77185762e-01 5.17443269e-02 1.89215586e-01 4.75204252e-02 9.81445312e-02 2.42262125e-01 1.06215328e-01 2.62069464e-01 2.05812067e-01 7.26400793e-01 8.21365118e-01 7.80789733e-01 7.80819714e-01 8.84762704e-01 9.14150715e-01 8.69068265e-01 8.94254148e-01 7.89367795e-01 8.15658748e-01 7.54406273e-01 7.90922940e-01 8.46650779e-01 8.08455288e-01 8.53948772e-01 8.41094553e-01 6.77685976e-01 7.39184856e-01 6.41511083e-01 6.90478206e-01 7.55204439e-01 7.27585912e-01 6.94689393e-01 7.30051696e-01 5.99183023e-01 6.35092556e-01 5.51096380e-01 5.99179387e-01 6.77635372e-01 6.47941947e-01 7.32734263e-01 6.90458357e-01 9.08395469e-01 8.67712975e-01 8.24991524e-01 8.71501625e-01 7.93660879e-01 6.89084291e-01 6.55242622e-01 7.15990663e-01 7.08361328e-01 6.15117013e-01 5.69066882e-01 6.33532405e-01 6.78018034e-01 7.66334236e-01 8.09308648e-01 7.54627645e-01 9.00182486e-01 8.25180888e-01 8.52299333e-01 8.63632143e-01 7.16002882e-01 5.82943499e-01 6.58778667e-01 6.55278325e-01 7.96237111e-01 7.09281087e-01 7.32513666e-01 7.49760032e-01 7.16289401e-01 8.10593605e-01 7.74364591e-01 7.70940483e-01 5.58011532e-01 4.05486673e-01 3.85656685e-01 4.51400191e-01 2.37381652e-01 6.01476245e-02 5.72586358e-02 1.18046783e-01 2.12073252e-01 5.38225621e-02 4.98659164e-02 1.04608253e-01 1.11866057e-01 2.75010496e-01 2.90308118e-01 2.25812048e-01 5.95138252e-01 4.27547544e-01 5.63624561e-01 5.30656338e-01 2.57063329e-01 9.63381976e-02 2.36630231e-01 1.96283862e-01 5.26692867e-01 3.67753178e-01 4.84681517e-01 4.60958868e-01 3.35092008e-01 4.98209894e-01 3.62123072e-01 3.99579912e-01 8.91360343e-02 2.20136762e-01 1.95922852e-01 1.70813426e-01 3.42797071e-01 4.52389985e-01 4.02735442e-01 4.02722448e-01 2.64613092e-01 3.49254608e-01 2.92473733e-01 3.05224866e-01 3.55653882e-01 2.58135289e-01 2.92326331e-01 3.05142879e-01 4.28438038e-02 1.50800198e-01 3.77645306e-02 7.92845413e-02 2.21529365e-01 2.51923233e-01 1.82861730e-01 2.21611276e-01 3.23371813e-02 1.06785849e-01 2.66142953e-02 5.74786440e-02 1.42263338e-01 6.86963946e-02 1.69877708e-01 1.29388973e-01 5.44657350e-01 6.16017282e-01 5.48476398e-01 5.73619306e-01 6.63708806e-01 6.85890794e-01 6.10769928e-01 6.57243550e-01 5.12560904e-01 5.29767752e-01 4.43666339e-01 4.98313606e-01 5.80572784e-01 5.54250717e-01 6.27488375e-01 5.90977430e-01 4.97717291e-01 5.06637454e-01 4.39573497e-01 4.84909356e-01 4.75685894e-01 4.11260962e-01 3.92553896e-01 4.29217786e-01 3.77241492e-01 3.58805656e-01 3.11323524e-01 3.52132767e-01 3.98305714e-01 4.20525074e-01 4.75670367e-01 4.34801251e-01 6.81706965e-01 6.51315629e-01 5.80066800e-01 6.40789926e-01 5.95881879e-01 5.17530203e-01 4.61004227e-01 5.26735425e-01 4.60488826e-01 4.00033861e-01 3.35203648e-01 3.99677575e-01 4.65450197e-01 5.25900602e-01 5.95207453e-01 5.30743003e-01 6.61736012e-01 5.66125214e-01 5.84584236e-01 6.07087255e-01 4.51525152e-01 3.30047309e-01 3.72795135e-01 3.85794103e-01 5.01801729e-01 4.01202410e-01 4.14187044e-01 4.41078246e-01 4.21540141e-01 5.26619136e-01 5.03228545e-01 4.86005634e-01 4.19259220e-01 3.04823458e-01 2.71612912e-01 3.32375705e-01 1.78596303e-01 4.54268083e-02 4.05489132e-02 8.71366635e-02 1.38235733e-01 3.52796093e-02 2.96691768e-02 6.63065985e-02 7.70938098e-02 1.89126074e-01 2.13910460e-01 1.59184158e-01 4.37994748e-01 2.93791741e-01 3.87084544e-01 3.73515517e-01 1.62516192e-01 5.48771173e-02 1.34333163e-01 1.15950830e-01 3.32441121e-01 2.08513990e-01 2.74586022e-01 2.71693856e-01 1.97672859e-01 3.24169636e-01 2.35781938e-01 2.52373159e-01 2.36517955e-02 9.21022668e-02 1.75591428e-02 4.27079462e-02 1.56984180e-01 2.15805113e-01 1.15611032e-01 1.61987558e-01 1.12756193e-02 4.30147648e-02 4.85720718e-03 1.77297667e-02 7.40066543e-02 3.03900894e-02 1.04378968e-01 6.79263100e-02 4.85336734e-03 4.28198874e-02 1.11301877e-02 1.75995585e-02 1.14693031e-01 2.13331953e-01 1.50903001e-01 1.58779308e-01 1.69573557e-02 8.69574547e-02 2.21172608e-02 4.04772758e-02 1.00150444e-01 2.96270177e-02 7.30247945e-02 6.61901385e-02 2.80380309e-01 3.17126632e-01 2.32912347e-01 2.79375732e-01 3.41754496e-01 3.53298813e-01 2.59543628e-01 3.20258707e-01 1.57903910e-01 1.63314342e-01 6.55359998e-02 1.29983351e-01 2.26193979e-01 2.15843990e-01 3.05658311e-01 2.51021087e-01 2.42432624e-01 1.97269157e-01 1.71193019e-01 2.05933899e-01 1.23987064e-01 3.25445645e-02 3.09640262e-02 6.32999837e-02 9.82768759e-02 2.82087699e-02 2.43867896e-02 5.17929196e-02 5.86568974e-02 1.29493356e-01 1.46478236e-01 1.13278925e-01 3.51289898e-01 3.35786432e-01 2.46789724e-01 3.12531471e-01 3.07372838e-01 2.67129630e-01 1.96450457e-01 2.57220209e-01 1.42353207e-01 1.23823799e-01 4.99363542e-02 1.04731992e-01 1.81879923e-01 2.05312565e-01 2.90463269e-01 2.25969538e-01 3.22587401e-01 2.20845178e-01 2.27891088e-01 2.58122116e-01 1.18150830e-01 2.65167896e-02 2.98130084e-02 5.73187135e-02 1.31014735e-01 3.19620594e-02 3.28833573e-02 6.52667284e-02 6.24937713e-02 1.62475497e-01 1.55401304e-01 1.27022982e-01 2.16583386e-01 1.57642722e-01 1.16056196e-01 1.62622929e-01 9.25370082e-02 2.37698089e-02 1.76343285e-02 4.29103486e-02 4.31675650e-02 1.13160415e-02 4.87254327e-03 1.77905392e-02 3.05119641e-02 7.42916614e-02 1.04837246e-01 6.82047233e-02 2.14063615e-01 1.15116663e-01 1.51433274e-01 1.59348041e-01 4.29673828e-02 4.86854604e-03 1.11663565e-02 1.76565684e-02 8.72722417e-02 1.70164499e-02 2.21974868e-02 4.06239443e-02 2.97284275e-02 1.00510716e-01 7.32853413e-02 6.64248317e-02 1.31519914e-01 3.23902726e-01 5.03842771e-01 6.64426923e-01 6.48387522e-02 6.57123998e-02 6.13072328e-02 6.33673593e-02 7.99480975e-01 9.03812528e-01 9.73410726e-01 1.00560021e+00 9.99143183e-01 9.54286814e-01 8.72753620e-01 7.57678390e-01 6.64450526e-01 5.03863275e-01 3.23917091e-01 1.31526589e-01 6.57192692e-02 6.48582876e-02 6.34073466e-02 6.13795444e-02 5.54725230e-02 5.86693883e-02 4.75204252e-02 5.17443269e-02 6.01476245e-02 5.72586358e-02 5.38225621e-02 4.98659164e-02 3.77645306e-02 4.28438038e-02 2.66142953e-02 3.23371813e-02 4.54268083e-02 4.05489132e-02 3.52796093e-02 2.96691768e-02 1.75591428e-02 2.36517955e-02 4.85720718e-03 1.12756193e-02 1.11301877e-02 4.85336734e-03 2.21172608e-02 1.69573557e-02 3.25445645e-02 3.09640262e-02 2.82087699e-02 2.43867896e-02 2.65167896e-02 2.98130084e-02 3.19620594e-02 3.28833573e-02 2.37698089e-02 1.76343285e-02 1.13160415e-02 4.87254327e-03 4.86854604e-03 1.11663565e-02 1.70164499e-02 2.21974868e-02 
POINT_DATA 289
FIELD FieldData 2
Velocity 3 289 float