# vtk DataFile Version 2.0
./pics/Solution_1_2.vtk, Created by Freefem++ 
ASCII
DATASET UNSTRUCTURED_GRID
POINTS 289 float
0 0 0
0.25 0 0
0.5 0 0
0.75 0 0
1 0 0
0 0.25 0
0.25 0.25 0
0.5 0.25 0
0.75 0.25 0
1 0.25 0
0 0.5 0
0.25 0.5 0
0.5 0.5 0
0.75 0.5 0
1 0.5 0
0 0.75 0
0.25 0.75 0
0.5 0.75 0
0.75 0.75 0
1 0.75 0
0 1 0
0.25 1 0
0.5 1 0
0.75 1 0
1 1 0
0.25 0.125 0
0.125 0 0
0 0.125 0
0.125 0.125 0
0.5 0.125 0
0.375 0 0
0.375 0.125 0
0.75 0.125 0
0.625 0 0
0.625 0.125 0
0.875 0.125 0
0.875 0 0
1 0.125 0
0.25 0.375 0
0.125 0.25 0
0 0.375 0
0.125 0.375 0
0.5 0.375 0
0.375 0.25 0
0.375 0.375 0
0.75 0.375 0
0.625 0.25 0
0.625 0.375 0
1 0.375 0
0.875 0.25 0
0.875 0.375 0
0.25 0.625 0
0.125 0.5 0
0 0.625 0
0.125 0.625 0
0.5 0.625 0
0.375 0.5 0
0.375 0.625 0
0.75 0.625 0
0.625 0.5 0
0.625 0.625 0
1 0.625 0
0.875 0.5 0
0.875 0.625 0
0.125 0.875 0
0 0.875 0
0.125 0.75 0
0.25 0.875 0
0.125 1 0
0.5 0.875 0
0.375 0.75 0
0.375 1 0
0.375 0.875 0
0.75 0.875 0
0.625 0.75 0
0.625 1 0
0.625 0.875 0
1 0.875 0
0.875 0.75 0
0.875 1 0
0.875 0.875 0
0.125 0.0625 0
0.0625 0 0
0.25 0.0625 0
0.1875 0.0625 0
0.1875 0 0
0.1875 0.1875 0
0.1875 0.125 0
0 0.0625 0
0.0625 0.0625 0
0.1875 0.25 0
0 0.1875 0
0.0625 0.1875 0
0.0625 0.125 0
0.125 0.1875 0
0.375 0.0625 0
0.3125 0 0
0.5 0.0625 0
0.4375 0.0625 0
0.4375 0 0
0.4375 0.1875 0
0.4375 0.125 0
0.3125 0.0625 0
0.4375 0.25 0
0.25 0.1875 0
0.3125 0.1875 0
0.3125 0.125 0
0.375 0.1875 0
0.625 0.0625 0
0.5625 0 0
0.75 0.0625 0
0.6875 0.0625 0
0.6875 0 0
0.6875 0.1875 0
0.6875 0.125 0
0.5625 0.0625 0
0.6875 0.25 0
0.5 0.1875 0
0.5625 0.1875 0
0.5625 0.125 0
0.625 0.1875 0
0.8125 0 0
0.9375 0.0625 0
0.875 0.0625 0
0.9375 0 0
0.75 0.1875 0
0.8125 0.125 0
0.8125 0.0625 0
0.875 0.1875 0
0.8125 0.1875 0
1 0.0625 0
1 0.1875 0
0.9375 0.25 0
0.9375 0.125 0
0.9375 0.1875 0
0.125 0.3125 0
0.0625 0.25 0
0.25 0.3125 0
0.1875 0.3125 0
0.1875 0.4375 0
0.1875 0.375 0
0 0.3125 0
0.0625 0.3125 0
0.1875 0.5 0
0 0.4375 0
0.0625 0.4375 0
0.0625 0.375 0
0.125 0.4375 0
0.375 0.3125 0
0.3125 0.25 0
0.5 0.3125 0
0.4375 0.3125 0
0.4375 0.4375 0
0.4375 0.375 0
0.3125 0.3125 0
0.4375 0.5 0
0.25 0.4375 0
0.3125 0.4375 0
0.3125 0.375 0
0.375 0.4375 0
0.625 0.3125 0
0.5625 0.25 0
0.75 0.3125 0
0.6875 0.3125 0
0.6875 0.4375 0
0.6875 0.375 0
0.5625 0.3125 0
0.6875 0.5 0
0.5 0.4375 0
0.5625 0.4375 0
0.5625 0.375 0
0.625 0.4375 0
0.875 0.3125 0
0.8125 0.25 0
1 0.3125 0
0.9375 0.3125 0
1 0.4375 0
0.9375 0.4375 0
0.9375 0.375 0
0.8125 0.3125 0
0.9375 0.5 0
0.75 0.4375 0
0.8125 0.4375 0
0.8125 0.375 0
0.875 0.4375 0
0.125 0.5625 0
0.0625 0.5 0
0.25 0.5625 0
0.1875 0.5625 0
0.1875 0.6875 0
0.1875 0.625 0
0 0.5625 0
0.0625 0.5625 0
0.1875 0.75 0
0 0.6875 0
0.0625 0.6875 0
0.0625 0.625 0
0.125 0.6875 0
0.375 0.5625 0
0.3125 0.5 0
0.5 0.5625 0
0.4375 0.5625 0
0.4375 0.6875 0
0.4375 0.625 0
0.3125 0.5625 0
0.4375 0.75 0
0.25 0.6875 0
0.3125 0.6875 0
0.3125 0.625 0
0.375 0.6875 0
0.625 0.5625 0
0.5625 0.5 0
0.75 0.5625 0
0.6875 0.5625 0
0.6875 0.6875 0
0.6875 0.625 0
0.5625 0.5625 0
0.6875 0.75 0
0.5 0.6875 0
0.5625 0.6875 0
0.5625 0.625 0
0.625 0.6875 0
0.875 0.5625 0
0.8125 0.5 0
1 0.5625 0
0.9375 0.5625 0
1 0.6875 0
0.9375 0.6875 0
0.9375 0.625 0
0.8125 0.5625 0
0.9375 0.75 0
0.75 0.6875 0
0.8125 0.6875 0
0.8125 0.625 0
0.875 0.6875 0
0 0.8125 0
0.0625 0.75 0
0.1875 0.8125 0
0.125 0.8125 0
0 0.9375 0
0.0625 0.8125 0
0.0625 0.875 0
0.125 0.9375 0
0.0625 1 0
0.0625 0.9375 0
0.25 0.8125 0
0.1875 1 0
0.1875 0.875 0
0.1875 0.9375 0
0.375 0.8125 0
0.3125 0.75 0
0.5 0.8125 0
0.4375 0.8125 0
0.4375 0.9375 0
0.4375 0.875 0
0.3125 0.8125 0
0.4375 1 0
0.375 0.9375 0
0.3125 1 0
0.25 0.9375 0
0.3125 0.9375 0
0.3125 0.875 0
0.625 0.8125 0
0.5625 0.75 0
0.75 0.8125 0
0.6875 0.8125 0
0.6875 0.9375 0
0.6875 0.875 0
0.5625 0.8125 0
0.6875 1 0
0.625 0.9375 0
0.5625 1 0
0.5 0.9375 0
0.5625 0.9375 0
0.5625 0.875 0
0.875 0.8125 0
0.8125 0.75 0
1 0.8125 0
0.9375 0.8125 0
1 0.9375 0
0.9375 0.9375 0
0.9375 0.875 0
0.8125 0.8125 0
0.9375 1 0
0.875 0.9375 0
0.8125 1 0
0.75 0.9375 0
0.8125 0.9375 0
0.8125 0.875 0

CELLS 576 2240
3 0 82 89
3 82 26 81
3 89 81 28
3 81 89 82
3 26 85 84
3 85 1 83
3 84 83 25
3 83 84 85
3 28 87 86
3 87 25 104
3 86 104 6
3 104 86 87
3 25 87 84
3 87 28 81
3 84 81 26
3 81 84 87
3 0 89 88
3 89 28 93
3 88 93 27
3 93 88 89
3 28 86 94
3 86 6 90
3 94 90 39
3 90 94 86
3 27 92 91
3 92 39 136
3 91 136 5
3 136 91 92
3 39 92 94
3 92 27 93
3 94 93 28
3 93 94 92
3 1 96 102
3 96 30 95
3 102 95 31
3 95 102 96
3 30 99 98
3 99 2 97
3 98 97 29
3 97 98 99
3 31 101 100
3 101 29 117
3 100 117 7
3 117 100 101
3 29 101 98
3 101 31 95
3 98 95 30
3 95 98 101
3 1 102 83
3 102 31 106
3 83 106 25
3 106 83 102
3 31 100 107
3 100 7 103
3 107 103 43
3 103 107 100
3 25 105 104
3 105 43 149
3 104 149 6
3 149 104 105
3 43 105 107
3 105 25 106
3 107 106 31
3 106 107 105
3 2 109 115
3 109 33 108
3 115 108 34
3 108 115 109
3 33 112 111
3 112 3 110
3 111 110 32
3 110 111 112
3 34 114 113
3 114 32 125
3 113 125 8
3 125 113 114
3 32 114 111
3 114 34 108
3 111 108 33
3 108 111 114
3 2 115 97
3 115 34 119
3 97 119 29
3 119 97 115
3 34 113 120
3 113 8 116
3 120 116 46
3 116 120 113
3 29 118 117
3 118 46 161
3 117 161 7
3 161 117 118
3 46 118 120
3 118 29 119
3 120 119 34
3 119 120 118
3 3 121 110
3 121 36 127
3 110 127 32
3 127 110 121
3 36 124 123
3 124 4 122
3 123 122 35
3 122 123 124
3 32 126 125
3 126 35 129
3 125 129 8
3 129 125 126
3 35 126 123
3 126 32 127
3 123 127 36
3 127 123 126
3 8 129 173
3 129 35 128
3 173 128 49
3 128 173 129
3 35 122 133
3 122 4 130
3 133 130 37
3 130 133 122
3 49 134 132
3 134 37 131
3 132 131 9
3 131 132 134
3 37 134 133
3 134 49 128
3 133 128 35
3 128 133 134
3 5 136 142
3 136 39 135
3 142 135 41
3 135 142 136
3 39 90 138
3 90 6 137
3 138 137 38
3 137 138 90
3 41 140 139
3 140 38 156
3 139 156 11
3 156 139 140
3 38 140 138
3 140 41 135
3 138 135 39
3 135 138 140
3 5 142 141
3 142 41 146
3 141 146 40
3 146 141 142
3 41 139 147
3 139 11 143
3 147 143 52
3 143 147 139
3 40 145 144
3 145 52 186
3 144 186 10
3 186 144 145
3 52 145 147
3 145 40 146
3 147 146 41
3 146 147 145
3 6 149 154
3 149 43 148
3 154 148 44
3 148 154 149
3 43 103 151
3 103 7 150
3 151 150 42
3 150 151 103
3 44 153 152
3 153 42 168
3 152 168 12
3 168 152 153
3 42 153 151
3 153 44 148
3 151 148 43
3 148 151 153
3 6 154 137
3 154 44 158
3 137 158 38
3 158 137 154
3 44 152 159
3 152 12 155
3 159 155 56
3 155 159 152
3 38 157 156
3 157 56 199
3 156 199 11
3 199 156 157
3 56 157 159
3 157 38 158
3 159 158 44
3 158 159 157
3 7 161 166
3 161 46 160
3 166 160 47
3 160 166 161
3 46 116 163
3 116 8 162
3 163 162 45
3 162 163 116
3 47 165 164
3 165 45 181
3 164 181 13
3 181 164 165
3 45 165 163
3 165 47 160
3 163 160 46
3 160 163 165
3 7 166 150
3 166 47 170
3 150 170 42
3 170 150 166
3 47 164 171
3 164 13 167
3 171 167 59
3 167 171 164
3 42 169 168
3 169 59 211
3 168 211 12
3 211 168 169
3 59 169 171
3 169 42 170
3 171 170 47
3 170 171 169
3 8 173 179
3 173 49 172
3 179 172 50
3 172 179 173
3 49 132 175
3 132 9 174
3 175 174 48
3 174 175 132
3 50 178 177
3 178 48 176
3 177 176 14
3 176 177 178
3 48 178 175
3 178 50 172
3 175 172 49
3 172 175 178
3 8 179 162
3 179 50 183
3 162 183 45
3 183 162 179
3 50 177 184
3 177 14 180
3 184 180 62
3 180 184 177
3 45 182 181
3 182 62 223
3 181 223 13
3 223 181 182
3 62 182 184
3 182 45 183
3 184 183 50
3 183 184 182
3 10 186 192
3 186 52 185
3 192 185 54
3 185 192 186
3 52 143 188
3 143 11 187
3 188 187 51
3 187 188 143
3 54 190 189
3 190 51 206
3 189 206 16
3 206 189 190
3 51 190 188
3 190 54 185
3 188 185 52
3 185 188 190
3 10 192 191
3 192 54 196
3 191 196 53
3 196 191 192
3 54 189 197
3 189 16 193
3 197 193 66
3 193 197 189
3 53 195 194
3 195 66 236
3 194 236 15
3 236 194 195
3 66 195 197
3 195 53 196
3 197 196 54
3 196 197 195
3 11 199 204
3 199 56 198
3 204 198 57
3 198 204 199
3 56 155 201
3 155 12 200
3 201 200 55
3 200 201 155
3 57 203 202
3 203 55 218
3 202 218 17
3 218 202 203
3 55 203 201
3 203 57 198
3 201 198 56
3 198 201 203
3 11 204 187
3 204 57 208
3 187 208 51
3 208 187 204
3 57 202 209
3 202 17 205
3 209 205 70
3 205 209 202
3 51 207 206
3 207 70 250
3 206 250 16
3 250 206 207
3 70 207 209
3 207 51 208
3 209 208 57
3 208 209 207
3 12 211 216
3 211 59 210
3 216 210 60
3 210 216 211
3 59 167 213
3 167 13 212
3 213 212 58
3 212 213 167
3 60 215 214
3 215 58 231
3 214 231 18
3 231 214 215
3 58 215 213
3 215 60 210
3 213 210 59
3 210 213 215
3 12 216 200
3 216 60 220
3 200 220 55
3 220 200 216
3 60 214 221
3 214 18 217
3 221 217 74
3 217 221 214
3 55 219 218
3 219 74 263
3 218 263 17
3 263 218 219
3 74 219 221
3 219 55 220
3 221 220 60
3 220 221 219
3 13 223 229
3 223 62 222
3 229 222 63
3 222 229 223
3 62 180 225
3 180 14 224
3 225 224 61
3 224 225 180
3 63 228 227
3 228 61 226
3 227 226 19
3 226 227 228
3 61 228 225
3 228 63 222
3 225 222 62
3 222 225 228
3 13 229 212
3 229 63 233
3 212 233 58
3 233 212 229
3 63 227 234
3 227 19 230
3 234 230 78
3 230 234 227
3 58 232 231
3 232 78 276
3 231 276 18
3 276 231 232
3 78 232 234
3 232 58 233
3 234 233 63
3 233 234 232
3 15 236 235
3 236 66 240
3 235 240 65
3 240 235 236
3 66 193 238
3 193 16 237
3 238 237 64
3 237 238 193
3 65 241 239
3 241 64 244
3 239 244 20
3 244 239 241
3 64 241 238
3 241 65 240
3 238 240 66
3 240 238 241
3 20 244 243
3 244 64 242
3 243 242 68
3 242 243 244
3 64 237 247
3 237 16 245
3 247 245 67
3 245 247 237
3 68 248 246
3 248 67 259
3 246 259 21
3 259 246 248
3 67 248 247
3 248 68 242
3 247 242 64
3 242 247 248
3 16 250 255
3 250 70 249
3 255 249 72
3 249 255 250
3 70 205 252
3 205 17 251
3 252 251 69
3 251 252 205
3 72 254 253
3 254 69 272
3 253 272 22
3 272 253 254
3 69 254 252
3 254 72 249
3 252 249 70
3 249 252 254
3 16 255 245
3 255 72 261
3 245 261 67
3 261 245 255
3 72 253 257
3 253 22 256
3 257 256 71
3 256 257 253
3 67 260 259
3 260 71 258
3 259 258 21
3 258 259 260
3 71 260 257
3 260 67 261
3 257 261 72
3 261 257 260
3 17 263 268
3 263 74 262
3 268 262 76
3 262 268 263
3 74 217 265
3 217 18 264
3 265 264 73
3 264 265 217
3 76 267 266
3 267 73 286
3 266 286 23
3 286 266 267
3 73 267 265
3 267 76 262
3 265 262 74
3 262 265 267
3 17 268 251
3 268 76 274
3 251 274 69
3 274 251 268
3 76 266 270
3 266 23 269
3 270 269 75
3 269 270 266
3 69 273 272
3 273 75 271
3 272 271 22
3 271 272 273
3 75 273 270
3 273 69 274
3 270 274 76
3 274 270 273
3 18 276 282
3 276 78 275
3 282 275 80
3 275 282 276
3 78 230 278
3 230 19 277
3 278 277 77
3 277 278 230
3 80 281 280
3 281 77 279
3 280 279 24
3 279 280 281
3 77 281 278
3 281 80 275
3 278 275 78
3 275 278 281
3 18 282 264
3 282 80 288
3 264 288 73
3 288 264 282
3 80 280 284
3 280 24 283
3 284 283 79
3 283 284 280
3 73 287 286
3 287 79 285
3 286 285 23
3 285 286 287
3 79 287 284
3 287 73 288
3 284 288 80
3 288 284 287
2 0 82
2 82 26
2 26 85
2 85 1
2 27 88
2 88 0
2 5 91
2 91 27
2 1 96
2 96 30
2 30 99
2 99 2
2 2 109
2 109 33
2 33 112
2 112 3
2 3 121
2 121 36
2 36 124
2 124 4
2 4 130
2 130 37
2 37 131
2 131 9
2 40 141
2 141 5
2 10 144
2 144 40
2 9 174
2 174 48
2 48 176
2 176 14
2 53 191
2 191 10
2 15 194
2 194 53
2 14 224
2 224 61
2 61 226
2 226 19
2 65 235
2 235 15
2 20 239
2 239 65
2 68 243
2 243 20
2 21 246
2 246 68
2 22 256
2 256 71
2 71 258
2 258 21
2 23 269
2 269 75
2 75 271
2 271 22
2 19 277
2 277 77
2 77 279
2 279 24
2 24 283
2 283 79
2 79 285
2 285 23

CELL_TYPES 576
5 5 5 5 5 5 5 5 5 5 5 5 5 5 5 5 5 5 5 5 5 5 5 5 5 5 5 5 5 5 5 5 5 5 5 5 5 5 5 5 5 5 5 5 5 5 5 5 5 5 5 5 5 5 5 5 5 5 5 5 5 5 5 5 5 5 5 5 5 5 5 5 5 5 5 5 5 5 5 5 5 5 5 5 5 5 5 5 5 5 5 5 5 5 5 5 5 5 5 5 5 5 5 5 5 5 5 5 5 5 5 5 5 5 5 5 5 5 5 5 5 5 5 5 5 5 5 5 5 5 5 5 5 5 5 5 5 5 5 5 5 5 5 5 5 5 5 5 5 5 5 5 5 5 5 5 5 5 5 5 5 5 5 5 5 5 5 5 5 5 5 5 5 5 5 5 5 5 5 5 5 5 5 5 5 5 5 5 5 5 5 5 5 5 5 5 5 5 5 5 5 5 5 5 5 5 5 5 5 5 5 5 5 5 5 5 5 5 5 5 5 5 5 5 5 5 5 5 5 5 5 5 5 5 5 5 5 5 5 5 5 5 5 5 5 5 5 5 5 5 5 5 5 5 5 5 5 5 5 5 5 5 5 5 5 5 5 5 5 5 5 5 5 5 5 5 5 5 5 5 5 5 5 5 5 5 5 5 5 5 5 5 5 5 5 5 5 5 5 5 5 5 5 5 5 5 5 5 5 5 5 5 5 5 5 5 5 5 5 5 5 5 5 5 5 5 5 5 5 5 5 5 5 5 5 5 5 5 5 5 5 5 5 5 5 5 5 5 5 5 5 5 5 5 5 5 5 5 5 5 5 5 5 5 5 5 5 5 5 5 5 5 5 5 5 5 5 5 5 5 5 5 5 5 5 5 5 5 5 5 5 5 5 5 5 5 5 5 5 5 5 5 5 5 5 5 5 5 5 5 5 5 5 5 5 5 5 5 5 5 5 5 5 5 5 5 5 5 5 5 5 5 5 5 5 5 5 5 5 5 5 5 5 5 5 5 5 5 5 5 5 5 5 5 5 5 5 5 5 5 5 5 5 5 5 5 5 5 5 5 5 5 5 5 5 5 5 5 5 5 5 5 5 5 5 5 5 5 5 5 5 5 5 5 5 5 5 5 5 5 5 5 5 5 5 5 5 5 5 5 5 5 3 3 3 3 3 3 3 3 3 3 3 3 3 3 3 3 3 3 3 3 3 3 3 3 3 3 3 3 3 3 3 3 3 3 3 3 3 3 3 3 3 3 3 3 3 3 3 3 3 3 3 3 3 3 3 3 3 3 3 3 3 3 3 3 
CELL_DATA 576
Scalars  Label int 1
LOOKUP_TABLE FreeFempp_table
0
0
0
0
0
0
0
0
0
0
0
0
0
0
0
0
0
0
0
0
0
0
0
0
0
0
0
0
0
0
0
0
0
0
0
0
0
0
0
0
0
0
0
0
0
0
0
0
0
0
0
0
0
0
0
0
0
0
0
0
0
0
0
0
0
0
0
0
0
0
0
0
0
0
0
0
0
0
0
0
0
0
0
0
0
0
0
0
0
0
0
0
0
0
0
0
0
0
0
0
0
0
0
0
0
0
0
0
0
0
0
0
0
0
0
0
0
0
0
0
0
0
0
0
0
0
0
0
0
0
0
0
0
0
0
0
0
0
0
0
0
0
0
0
0
0
0
0
0
0
0
0
0
0
0
0
0
0
0
0
0
0
0
0
0
0
0
0
0
0
0
0
0
0
0
0
0
0
0
0
0
0
0
0
0
0
0
0
0
0
0
0
0
0
0
0
0
0
0
0
0
0
0
0
0
0
0
0
0
0
0
0
0
0
0
0
0
0
0
0
0
0
0
0
0
0
0
0
0
0
0
0
0
0
0
0
0
0
0
0
0
0
0
0
0
0
0
0
0
0
0
0
0
0
0
0
0
0
0
0
0
0
0
0
0
0
0
0
0
0
0
0
0
0
0
0
0
0
0
0
0
0
0
0
0
0
0
0
0
0
0
0
0
0
0
0
0
0
0
0
0
0
0
0
0
0
0
0
0
0
0
0
0
0
0
0
0
0
0
0
0
0
0
0
0
0
0
0
0
0
0
0
0
0
0
0
0
0
0
0
0
0
0
0
0
0
0
0
0
0
0
0
0
0
0
0
0
0
0
0
0
0
0
0
0
0
0
0
0
0
0
0
0
0
0
0
0
0
0
0
0
0
0
0
0
0
0
0
0
0
0
0
0
0
0
0
0
0
0
0
0
0
0
0
0
0
0
0
0
0
0
0
0
0
0
0
0
0
0
0
0
0
0
0
0
0
0
0
0
0
0
0
0
0
0
0
0
0
0
0
0
0
0
0
0
0
0
0
0
0
0
0
0
0
0
0
0
0
0
0
0
0
0
0
0
0
0
0
0
0
0
0
0
0
0
0
0
0
0
0
0
0
0
0
0
0
0
0
0
0
0
0
0
0
0
0
0
0
0
0
0
0
0
0
0
0
0
0
0
0
0
0
1
1
1
1
4
4
4
4
1
1
1
1
1
1
1
1
1
1
1
1
2
2
2
2
4
4
4
4
2
2
2
2
4
4
4
4
2
2
2
2
4
4
4
4
3
3
3
3
3
3
3
3
3
3
3
3
2
2
2
2
3
3
3
3

LOOKUP_TABLE FreeFempp_table 5
1.00000000 0.00000000 0.00000000 1.00000000
1.00000000 1.00000000 0.00000000 1.00000000
1.00000000 0.00000000 1.00000000 1.00000000
0.00000000 1.00000000 0.00000000 1.00000000
0.00000000 1.00000000 1.00000000 1.00000000

FIELD FieldData 1
Pressure 1 576 float
1.30318120e-01 3.21030408e-01 3.17642689e-01 2.57706612e-01 4.99432176e-01 6.58643901e-01 6.52014732e-01 6.06502593e-01 4.85215396e-01 6.40089273e-01 6.22204959e-01 5.86006224e-01 5.98845959e-01 4.34918433e-01 4.40561980e-01 4.94321257e-01 6.50425330e-02 2.54309118e-01 6.41253144e-02 1.28858283e-01 4.25526559e-01 5.67629755e-01 4.12119091e-01 4.71598744e-01 6.26620352e-02 2.40826264e-01 6.06100820e-02 1.22733079e-01 3.02891135e-01 1.26378119e-01 3.11711341e-01 2.48737931e-01 7.92542696e-01 8.95981908e-01 8.87115955e-01 8.62972319e-01 9.64986205e-01 9.96903539e-01 9.87128079e-01 9.88042116e-01 9.38177407e-01 9.69281197e-01 9.42398787e-01 9.55131710e-01 9.75831687e-01 9.31942523e-01 9.43641782e-01 9.55485821e-01 7.49134123e-01 8.52229536e-01 7.39756405e-01 7.84646094e-01 9.12139595e-01 9.25399423e-01 8.83711100e-01 9.12124097e-01 7.23960936e-01 8.08049440e-01 7.01321781e-01 7.48890877e-01 8.46784532e-01 7.70356715e-01 8.71008813e-01 8.34082782e-01 9.90507126e-01 9.46042120e-01 9.36819911e-01 9.62667644e-01 8.65214586e-01 7.51120746e-01 7.43772686e-01 7.90682495e-01 8.41374636e-01 7.30374634e-01 7.10213900e-01 7.64484286e-01 7.80971110e-01 8.82893085e-01 8.93863797e-01 8.56791079e-01 9.94466662e-01 9.50830936e-01 9.82209980e-01 9.80826020e-01 8.64246964e-01 7.40808368e-01 8.37436616e-01 8.18126202e-01 9.61406708e-01 9.01813686e-01 9.31512356e-01 9.36444879e-01 8.94488573e-01 9.63124335e-01 9.19940770e-01 9.30721939e-01 6.58672750e-01 4.99446332e-01 6.52106762e-01 6.06543720e-01 3.21039021e-01 1.30322248e-01 3.17665994e-01 2.57719010e-01 6.40238941e-01 4.85287309e-01 6.22480989e-01 5.86145699e-01 4.34957206e-01 5.98927498e-01 4.40583289e-01 4.94361520e-01 5.67977011e-01 4.25614625e-01 4.12454844e-01 4.71817493e-01 2.54331797e-01 6.50463551e-02 6.41319528e-02 1.28868863e-01 2.41133213e-01 6.26836270e-02 6.07333519e-02 1.22863665e-01 1.26404703e-01 3.03093880e-01 3.11761349e-01 2.48803675e-01 1.17917649e-01 2.91174322e-01 2.76658028e-01 2.30606809e-01 4.53465283e-01 5.98357737e-01 5.68750262e-01 5.43801010e-01 4.04320896e-01 5.33664286e-01 4.93437529e-01 4.80713069e-01 5.14736056e-01 3.73593390e-01 3.94755930e-01 4.30968195e-01 5.79783916e-02 2.18169808e-01 5.47897704e-02 1.11970179e-01 3.48833293e-01 4.42059636e-01 3.20713788e-01 3.73779535e-01 5.10740131e-02 1.87135175e-01 4.68665920e-02 9.69109088e-02 2.39801034e-01 1.04945667e-01 2.59478778e-01 2.03632817e-01 7.20246255e-01 8.14442337e-01 7.74257839e-01 7.74251640e-01 8.77326310e-01 9.06481862e-01 8.61836493e-01 8.86775136e-01 7.82798767e-01 8.08887720e-01 7.48145103e-01 7.84353971e-01 8.39609325e-01 8.01714420e-01 8.46790969e-01 8.34080577e-01 6.71944320e-01 7.32996345e-01 6.36095405e-01 6.84666753e-01 7.48913467e-01 7.21541047e-01 6.88896537e-01 7.23974586e-01 5.94118476e-01 6.29764855e-01 5.46417892e-01 5.94125986e-01 6.71968818e-01 6.42491341e-01 7.26613760e-01 6.84678972e-01 9.00788605e-01 8.60463560e-01 8.18154395e-01 8.64241600e-01 7.87046850e-01 6.83324695e-01 6.49846673e-01 7.10053980e-01 7.02520728e-01 6.10066235e-01 5.64398170e-01 6.28324628e-01 6.72436655e-01 7.60003090e-01 8.02585483e-01 7.48391688e-01 8.92667711e-01 8.18345726e-01 8.45225096e-01 8.56459081e-01 7.10096359e-01 5.78155458e-01 6.53347373e-01 6.49878979e-01 7.89638937e-01 7.03418255e-01 7.26444423e-01 7.43551970e-01 7.10371614e-01 8.03878248e-01 7.67962694e-01 7.64565289e-01 5.53297102e-01 4.02022421e-01 3.82532030e-01 4.47640657e-01 2.35313222e-01 5.96053079e-02 5.68262711e-02 1.17060520e-01 2.10455850e-01 5.34461774e-02 4.95430008e-02 1.03869274e-01 1.11028083e-01 2.72837400e-01 2.87888467e-01 2.24027947e-01 5.90189576e-01 4.24084872e-01 5.59010208e-01 5.26309550e-01 2.55075008e-01 9.57011729e-02 2.34841585e-01 1.94832847e-01 5.22391617e-01 3.64815325e-01 4.80731338e-01 4.57212955e-01 3.32436919e-01 4.94151443e-01 3.59227389e-01 3.96365881e-01 8.79435688e-02 2.17814907e-01 1.93738386e-01 1.68837115e-01 3.39638859e-01 4.48457897e-01 3.99162114e-01 3.99149209e-01 2.61960655e-01 3.46048385e-01 2.89755285e-01 3.02323252e-01 3.52403015e-01 2.55524993e-01 2.89507210e-01 3.02233338e-01 4.22085114e-02 1.48925245e-01 3.71483825e-02 7.81340525e-02 2.19164833e-01 2.49643922e-01 1.81105912e-01 2.19408810e-01 3.17589790e-02 1.05575629e-01 2.62416285e-02 5.66056818e-02 1.40599087e-01 6.76031411e-02 1.67844176e-01 1.27658874e-01 5.40036798e-01 6.10849440e-01 5.43844461e-01 5.68783045e-01 6.58174455e-01 6.80193722e-01 6.05687678e-01 6.51775539e-01 5.08241832e-01 5.25344014e-01 4.39935654e-01 4.94133174e-01 5.75729012e-01 5.49590766e-01 6.22241676e-01 5.86032033e-01 4.93453711e-01 5.02322018e-01 4.35739875e-01 4.80746150e-01 4.71643656e-01 4.07772988e-01 3.89150918e-01 4.25552577e-01 3.73856038e-01 3.55595112e-01 3.08485836e-01 3.48949760e-01 3.94818097e-01 4.16833639e-01 4.71600652e-01 4.31026846e-01 6.76061273e-01 6.45936012e-01 5.75276196e-01 6.35493517e-01 5.90975404e-01 5.13291121e-01 4.57238555e-01 5.22415638e-01 4.56707180e-01 3.96780163e-01 3.32497835e-01 3.96420002e-01 4.61642116e-01 5.21571040e-01 5.90303242e-01 5.26377499e-01 6.56250119e-01 5.61444879e-01 5.79731703e-01 6.02055848e-01 4.47812229e-01 3.27376872e-01 3.69736582e-01 3.82634848e-01 4.97625500e-01 3.97878379e-01 4.10721362e-01 4.37405556e-01 4.18057650e-01 5.22248030e-01 4.99072313e-01 4.81985003e-01 4.15867209e-01 3.02440733e-01 2.69530833e-01 3.29748809e-01 1.77330136e-01 4.51616012e-02 4.03452069e-02 8.66103023e-02 1.37385577e-01 3.51403803e-02 2.95973159e-02 6.60220608e-02 7.66853243e-02 1.87801808e-01 2.12344393e-01 1.58119231e-01 4.34438586e-01 2.91505545e-01 3.83960158e-01 3.70514750e-01 1.61450475e-01 5.47232963e-02 1.33544162e-01 1.15328990e-01 3.29782158e-01 2.06989303e-01 2.72425920e-01 2.69571513e-01 1.96263790e-01 3.21592569e-01 2.34024554e-01 2.50454009e-01 2.35272776e-02 9.15506780e-02 1.76635999e-02 4.26327176e-02 1.55938506e-01 2.14197293e-01 1.15243368e-01 1.61064982e-01 1.14553953e-02 4.32910137e-02 5.03249001e-03 1.80423148e-02 7.40283802e-02 3.05919237e-02 1.03939526e-01 6.79595247e-02 5.02773002e-03 4.30830345e-02 1.12949349e-02 1.78986732e-02 1.14310704e-01 2.11741388e-01 1.49869621e-01 1.57852605e-01 1.70273241e-02 8.63900557e-02 2.19803341e-02 4.03551199e-02 9.96696055e-02 2.97822095e-02 7.30129629e-02 6.61644861e-02 2.77786493e-01 3.14237058e-01 2.30624050e-01 2.76743919e-01 3.38759601e-01 3.50284249e-01 2.57254273e-01 3.17479312e-01 1.56266049e-01 1.61759168e-01 6.48158789e-02 1.28650546e-01 2.24125892e-01 2.13740602e-01 3.02905202e-01 2.48699769e-01 2.40249932e-01 1.95213482e-01 1.69562861e-01 2.03911677e-01 1.22569039e-01 3.21505070e-02 3.05234678e-02 6.24975599e-02 9.71832201e-02 2.77471300e-02 2.40564551e-02 5.10440581e-02 5.78025021e-02 1.28017575e-01 1.44807056e-01 1.11844547e-01 3.48344684e-01 3.33011508e-01 2.44751588e-01 3.09934109e-01 3.04872960e-01 2.65009671e-01 1.94961607e-01 2.55176395e-01 1.41281947e-01 1.23004131e-01 4.97091673e-02 1.04054727e-01 1.80507794e-01 2.03670010e-01 2.88094908e-01 2.24167645e-01 3.19855452e-01 2.18998477e-01 2.25904882e-01 2.55923122e-01 1.17257535e-01 2.63929944e-02 2.96098813e-02 5.69441430e-02 1.29795104e-01 3.16869579e-02 3.25445756e-02 6.46449327e-02 6.19872548e-02 1.61038131e-01 1.54124290e-01 1.25948817e-01 2.14951709e-01 1.56611443e-01 1.15443736e-01 1.61528572e-01 9.21614766e-02 2.37693246e-02 1.77113544e-02 4.28973362e-02 4.33456898e-02 1.14724161e-02 5.04154665e-03 1.80685464e-02 3.06528844e-02 7.41409063e-02 1.04350470e-01 6.81015477e-02 2.12442368e-01 1.14499599e-01 1.50400817e-01 1.58254012e-01 4.31388728e-02 5.03707258e-03 1.13142384e-02 1.79269835e-02 8.68470445e-02 1.70715246e-02 2.21597422e-02 4.05596793e-02 2.98418049e-02 9.99917388e-02 7.31186196e-02 6.62907511e-02 1.30318120e-01 3.21030408e-01 4.99432176e-01 6.58643901e-01 6.41253144e-02 6.50425330e-02 6.06100820e-02 6.26620352e-02 7.92542696e-01 8.95981908e-01 9.64986205e-01 9.96903539e-01 9.90507126e-01 9.46042120e-01 8.65214586e-01 7.51120746e-01 6.58672750e-01 4.99446332e-01 3.21039021e-01 1.30322248e-01 6.50463551e-02 6.41319528e-02 6.26836270e-02 6.07333519e-02 5.47897704e-02 5.79783916e-02 4.68665920e-02 5.10740131e-02 5.96053079e-02 5.68262711e-02 5.34461774e-02 4.95430008e-02 3.71483825e-02 4.22085114e-02 2.62416285e-02 3.17589790e-02 4.51616012e-02 4.03452069e-02 3.51403803e-02 2.95973159e-02 1.76635999e-02 2.35272776e-02 5.03249001e-03 1.14553953e-02 1.12949349e-02 5.02773002e-03 2.19803341e-02 1.70273241e-02 3.21505070e-02 3.05234678e-02 2.77471300e-02 2.40564551e-02 2.63929944e-02 2.96098813e-02 3.16869579e-02 3.25445756e-02 2.37693246e-02 1.77113544e-02 1.14724161e-02 5.04154665e-03 5.03707258e-03 1.13142384e-02 1.70715246e-02 2.21597422e-02 
POINT_DATA 289
FIELD FieldData 2
Velocity 3 289 float