# vtk DataFile Version 2.0
./pics/Solution_1_3.vtk, Created by Freefem++ 
ASCII
DATASET UNSTRUCTURED_GRID
POINTS 289 float
0 0 0
0.25 0 0
0.5 0 0
0.75 0 0
1 0 0
0 0.25 0
0.25 0.25 0
0.5 0.25 0
0.75 0.25 0
1 0.25 0
0 0.5 0
0.25 0.5 0
0.5 0.5 0
0.75 0.5 0
1 0.5 0
0 0.75 0
0.25 0.75 0
0.5 0.75 0
0.75 0.75 0
1 0.75 0
0 1 0
0.25 1 0
0.5 1 0
0.75 1 0
1 1 0
0.25 0.125 0
0.125 0 0
0 0.125 0
0.125 0.125 0
0.5 0.125 0
0.375 0 0
0.375 0.125 0
0.75 0.125 0
0.625 0 0
0.625 0.125 0
0.875 0.125 0
0.875 0 0
1 0.125 0
0.25 0.375 0
0.125 0.25 0
0 0.375 0
0.125 0.375 0
0.5 0.375 0
0.375 0.25 0
0.375 0.375 0
0.75 0.375 0
0.625 0.25 0
0.625 0.375 0
1 0.375 0
0.875 0.25 0
0.875 0.375 0
0.25 0.625 0
0.125 0.5 0
0 0.625 0
0.125 0.625 0
0.5 0.625 0
0.375 0.5 0
0.375 0.625 0
0.75 0.625 0
0.625 0.5 0
0.625 0.625 0
1 0.625 0
0.875 0.5 0
0.875 0.625 0
0.125 0.875 0
0 0.875 0
0.125 0.75 0
0.25 0.875 0
0.125 1 0
0.5 0.875 0
0.375 0.75 0
0.375 1 0
0.375 0.875 0
0.75 0.875 0
0.625 0.75 0
0.625 1 0
0.625 0.875 0
1 0.875 0
0.875 0.75 0
0.875 1 0
0.875 0.875 0
0.125 0.0625 0
0.0625 0 0
0.25 0.0625 0
0.1875 0.0625 0
0.1875 0 0
0.1875 0.1875 0
0.1875 0.125 0
0 0.0625 0
0.0625 0.0625 0
0.1875 0.25 0
0 0.1875 0
0.0625 0.1875 0
0.0625 0.125 0
0.125 0.1875 0
0.375 0.0625 0
0.3125 0 0
0.5 0.0625 0
0.4375 0.0625 0
0.4375 0 0
0.4375 0.1875 0
0.4375 0.125 0
0.3125 0.0625 0
0.4375 0.25 0
0.25 0.1875 0
0.3125 0.1875 0
0.3125 0.125 0
0.375 0.1875 0
0.625 0.0625 0
0.5625 0 0
0.75 0.0625 0
0.6875 0.0625 0
0.6875 0 0
0.6875 0.1875 0
0.6875 0.125 0
0.5625 0.0625 0
0.6875 0.25 0
0.5 0.1875 0
0.5625 0.1875 0
0.5625 0.125 0
0.625 0.1875 0
0.8125 0 0
0.9375 0.0625 0
0.875 0.0625 0
0.9375 0 0
0.75 0.1875 0
0.8125 0.125 0
0.8125 0.0625 0
0.875 0.1875 0
0.8125 0.1875 0
1 0.0625 0
1 0.1875 0
0.9375 0.25 0
0.9375 0.125 0
0.9375 0.1875 0
0.125 0.3125 0
0.0625 0.25 0
0.25 0.3125 0
0.1875 0.3125 0
0.1875 0.4375 0
0.1875 0.375 0
0 0.3125 0
0.0625 0.3125 0
0.1875 0.5 0
0 0.4375 0
0.0625 0.4375 0
0.0625 0.375 0
0.125 0.4375 0
0.375 0.3125 0
0.3125 0.25 0
0.5 0.3125 0
0.4375 0.3125 0
0.4375 0.4375 0
0.4375 0.375 0
0.3125 0.3125 0
0.4375 0.5 0
0.25 0.4375 0
0.3125 0.4375 0
0.3125 0.375 0
0.375 0.4375 0
0.625 0.3125 0
0.5625 0.25 0
0.75 0.3125 0
0.6875 0.3125 0
0.6875 0.4375 0
0.6875 0.375 0
0.5625 0.3125 0
0.6875 0.5 0
0.5 0.4375 0
0.5625 0.4375 0
0.5625 0.375 0
0.625 0.4375 0
0.875 0.3125 0
0.8125 0.25 0
1 0.3125 0
0.9375 0.3125 0
1 0.4375 0
0.9375 0.4375 0
0.9375 0.375 0
0.8125 0.3125 0
0.9375 0.5 0
0.75 0.4375 0
0.8125 0.4375 0
0.8125 0.375 0
0.875 0.4375 0
0.125 0.5625 0
0.0625 0.5 0
0.25 0.5625 0
0.1875 0.5625 0
0.1875 0.6875 0
0.1875 0.625 0
0 0.5625 0
0.0625 0.5625 0
0.1875 0.75 0
0 0.6875 0
0.0625 0.6875 0
0.0625 0.625 0
0.125 0.6875 0
0.375 0.5625 0
0.3125 0.5 0
0.5 0.5625 0
0.4375 0.5625 0
0.4375 0.6875 0
0.4375 0.625 0
0.3125 0.5625 0
0.4375 0.75 0
0.25 0.6875 0
0.3125 0.6875 0
0.3125 0.625 0
0.375 0.6875 0
0.625 0.5625 0
0.5625 0.5 0
0.75 0.5625 0
0.6875 0.5625 0
0.6875 0.6875 0
0.6875 0.625 0
0.5625 0.5625 0
0.6875 0.75 0
0.5 0.6875 0
0.5625 0.6875 0
0.5625 0.625 0
0.625 0.6875 0
0.875 0.5625 0
0.8125 0.5 0
1 0.5625 0
0.9375 0.5625 0
1 0.6875 0
0.9375 0.6875 0
0.9375 0.625 0
0.8125 0.5625 0
0.9375 0.75 0
0.75 0.6875 0
0.8125 0.6875 0
0.8125 0.625 0
0.875 0.6875 0
0 0.8125 0
0.0625 0.75 0
0.1875 0.8125 0
0.125 0.8125 0
0 0.9375 0
0.0625 0.8125 0
0.0625 0.875 0
0.125 0.9375 0
0.0625 1 0
0.0625 0.9375 0
0.25 0.8125 0
0.1875 1 0
0.1875 0.875 0
0.1875 0.9375 0
0.375 0.8125 0
0.3125 0.75 0
0.5 0.8125 0
0.4375 0.8125 0
0.4375 0.9375 0
0.4375 0.875 0
0.3125 0.8125 0
0.4375 1 0
0.375 0.9375 0
0.3125 1 0
0.25 0.9375 0
0.3125 0.9375 0
0.3125 0.875 0
0.625 0.8125 0
0.5625 0.75 0
0.75 0.8125 0
0.6875 0.8125 0
0.6875 0.9375 0
0.6875 0.875 0
0.5625 0.8125 0
0.6875 1 0
0.625 0.9375 0
0.5625 1 0
0.5 0.9375 0
0.5625 0.9375 0
0.5625 0.875 0
0.875 0.8125 0
0.8125 0.75 0
1 0.8125 0
0.9375 0.8125 0
1 0.9375 0
0.9375 0.9375 0
0.9375 0.875 0
0.8125 0.8125 0
0.9375 1 0
0.875 0.9375 0
0.8125 1 0
0.75 0.9375 0
0.8125 0.9375 0
0.8125 0.875 0

CELLS 576 2240
3 0 82 89
3 82 26 81
3 89 81 28
3 81 89 82
3 26 85 84
3 85 1 83
3 84 83 25
3 83 84 85
3 28 87 86
3 87 25 104
3 86 104 6
3 104 86 87
3 25 87 84
3 87 28 81
3 84 81 26
3 81 84 87
3 0 89 88
3 89 28 93
3 88 93 27
3 93 88 89
3 28 86 94
3 86 6 90
3 94 90 39
3 90 94 86
3 27 92 91
3 92 39 136
3 91 136 5
3 136 91 92
3 39 92 94
3 92 27 93
3 94 93 28
3 93 94 92
3 1 96 102
3 96 30 95
3 102 95 31
3 95 102 96
3 30 99 98
3 99 2 97
3 98 97 29
3 97 98 99
3 31 101 100
3 101 29 117
3 100 117 7
3 117 100 101
3 29 101 98
3 101 31 95
3 98 95 30
3 95 98 101
3 1 102 83
3 102 31 106
3 83 106 25
3 106 83 102
3 31 100 107
3 100 7 103
3 107 103 43
3 103 107 100
3 25 105 104
3 105 43 149
3 104 149 6
3 149 104 105
3 43 105 107
3 105 25 106
3 107 106 31
3 106 107 105
3 2 109 115
3 109 33 108
3 115 108 34
3 108 115 109
3 33 112 111
3 112 3 110
3 111 110 32
3 110 111 112
3 34 114 113
3 114 32 125
3 113 125 8
3 125 113 114
3 32 114 111
3 114 34 108
3 111 108 33
3 108 111 114
3 2 115 97
3 115 34 119
3 97 119 29
3 119 97 115
3 34 113 120
3 113 8 116
3 120 116 46
3 116 120 113
3 29 118 117
3 118 46 161
3 117 161 7
3 161 117 118
3 46 118 120
3 118 29 119
3 120 119 34
3 119 120 118
3 3 121 110
3 121 36 127
3 110 127 32
3 127 110 121
3 36 124 123
3 124 4 122
3 123 122 35
3 122 123 124
3 32 126 125
3 126 35 129
3 125 129 8
3 129 125 126
3 35 126 123
3 126 32 127
3 123 127 36
3 127 123 126
3 8 129 173
3 129 35 128
3 173 128 49
3 128 173 129
3 35 122 133
3 122 4 130
3 133 130 37
3 130 133 122
3 49 134 132
3 134 37 131
3 132 131 9
3 131 132 134
3 37 134 133
3 134 49 128
3 133 128 35
3 128 133 134
3 5 136 142
3 136 39 135
3 142 135 41
3 135 142 136
3 39 90 138
3 90 6 137
3 138 137 38
3 137 138 90
3 41 140 139
3 140 38 156
3 139 156 11
3 156 139 140
3 38 140 138
3 140 41 135
3 138 135 39
3 135 138 140
3 5 142 141
3 142 41 146
3 141 146 40
3 146 141 142
3 41 139 147
3 139 11 143
3 147 143 52
3 143 147 139
3 40 145 144
3 145 52 186
3 144 186 10
3 186 144 145
3 52 145 147
3 145 40 146
3 147 146 41
3 146 147 145
3 6 149 154
3 149 43 148
3 154 148 44
3 148 154 149
3 43 103 151
3 103 7 150
3 151 150 42
3 150 151 103
3 44 153 152
3 153 42 168
3 152 168 12
3 168 152 153
3 42 153 151
3 153 44 148
3 151 148 43
3 148 151 153
3 6 154 137
3 154 44 158
3 137 158 38
3 158 137 154
3 44 152 159
3 152 12 155
3 159 155 56
3 155 159 152
3 38 157 156
3 157 56 199
3 156 199 11
3 199 156 157
3 56 157 159
3 157 38 158
3 159 158 44
3 158 159 157
3 7 161 166
3 161 46 160
3 166 160 47
3 160 166 161
3 46 116 163
3 116 8 162
3 163 162 45
3 162 163 116
3 47 165 164
3 165 45 181
3 164 181 13
3 181 164 165
3 45 165 163
3 165 47 160
3 163 160 46
3 160 163 165
3 7 166 150
3 166 47 170
3 150 170 42
3 170 150 166
3 47 164 171
3 164 13 167
3 171 167 59
3 167 171 164
3 42 169 168
3 169 59 211
3 168 211 12
3 211 168 169
3 59 169 171
3 169 42 170
3 171 170 47
3 170 171 169
3 8 173 179
3 173 49 172
3 179 172 50
3 172 179 173
3 49 132 175
3 132 9 174
3 175 174 48
3 174 175 132
3 50 178 177
3 178 48 176
3 177 176 14
3 176 177 178
3 48 178 175
3 178 50 172
3 175 172 49
3 172 175 178
3 8 179 162
3 179 50 183
3 162 183 45
3 183 162 179
3 50 177 184
3 177 14 180
3 184 180 62
3 180 184 177
3 45 182 181
3 182 62 223
3 181 223 13
3 223 181 182
3 62 182 184
3 182 45 183
3 184 183 50
3 183 184 182
3 10 186 192
3 186 52 185
3 192 185 54
3 185 192 186
3 52 143 188
3 143 11 187
3 188 187 51
3 187 188 143
3 54 190 189
3 190 51 206
3 189 206 16
3 206 189 190
3 51 190 188
3 190 54 185
3 188 185 52
3 185 188 190
3 10 192 191
3 192 54 196
3 191 196 53
3 196 191 192
3 54 189 197
3 189 16 193
3 197 193 66
3 193 197 189
3 53 195 194
3 195 66 236
3 194 236 15
3 236 194 195
3 66 195 197
3 195 53 196
3 197 196 54
3 196 197 195
3 11 199 204
3 199 56 198
3 204 198 57
3 198 204 199
3 56 155 201
3 155 12 200
3 201 200 55
3 200 201 155
3 57 203 202
3 203 55 218
3 202 218 17
3 218 202 203
3 55 203 201
3 203 57 198
3 201 198 56
3 198 201 203
3 11 204 187
3 204 57 208
3 187 208 51
3 208 187 204
3 57 202 209
3 202 17 205
3 209 205 70
3 205 209 202
3 51 207 206
3 207 70 250
3 206 250 16
3 250 206 207
3 70 207 209
3 207 51 208
3 209 208 57
3 208 209 207
3 12 211 216
3 211 59 210
3 216 210 60
3 210 216 211
3 59 167 213
3 167 13 212
3 213 212 58
3 212 213 167
3 60 215 214
3 215 58 231
3 214 231 18
3 231 214 215
3 58 215 213
3 215 60 210
3 213 210 59
3 210 213 215
3 12 216 200
3 216 60 220
3 200 220 55
3 220 200 216
3 60 214 221
3 214 18 217
3 221 217 74
3 217 221 214
3 55 219 218
3 219 74 263
3 218 263 17
3 263 218 219
3 74 219 221
3 219 55 220
3 221 220 60
3 220 221 219
3 13 223 229
3 223 62 222
3 229 222 63
3 222 229 223
3 62 180 225
3 180 14 224
3 225 224 61
3 224 225 180
3 63 228 227
3 228 61 226
3 227 226 19
3 226 227 228
3 61 228 225
3 228 63 222
3 225 222 62
3 222 225 228
3 13 229 212
3 229 63 233
3 212 233 58
3 233 212 229
3 63 227 234
3 227 19 230
3 234 230 78
3 230 234 227
3 58 232 231
3 232 78 276
3 231 276 18
3 276 231 232
3 78 232 234
3 232 58 233
3 234 233 63
3 233 234 232
3 15 236 235
3 236 66 240
3 235 240 65
3 240 235 236
3 66 193 238
3 193 16 237
3 238 237 64
3 237 238 193
3 65 241 239
3 241 64 244
3 239 244 20
3 244 239 241
3 64 241 238
3 241 65 240
3 238 240 66
3 240 238 241
3 20 244 243
3 244 64 242
3 243 242 68
3 242 243 244
3 64 237 247
3 237 16 245
3 247 245 67
3 245 247 237
3 68 248 246
3 248 67 259
3 246 259 21
3 259 246 248
3 67 248 247
3 248 68 242
3 247 242 64
3 242 247 248
3 16 250 255
3 250 70 249
3 255 249 72
3 249 255 250
3 70 205 252
3 205 17 251
3 252 251 69
3 251 252 205
3 72 254 253
3 254 69 272
3 253 272 22
3 272 253 254
3 69 254 252
3 254 72 249
3 252 249 70
3 249 252 254
3 16 255 245
3 255 72 261
3 245 261 67
3 261 245 255
3 72 253 257
3 253 22 256
3 257 256 71
3 256 257 253
3 67 260 259
3 260 71 258
3 259 258 21
3 258 259 260
3 71 260 257
3 260 67 261
3 257 261 72
3 261 257 260
3 17 263 268
3 263 74 262
3 268 262 76
3 262 268 263
3 74 217 265
3 217 18 264
3 265 264 73
3 264 265 217
3 76 267 266
3 267 73 286
3 266 286 23
3 286 266 267
3 73 267 265
3 267 76 262
3 265 262 74
3 262 265 267
3 17 268 251
3 268 76 274
3 251 274 69
3 274 251 268
3 76 266 270
3 266 23 269
3 270 269 75
3 269 270 266
3 69 273 272
3 273 75 271
3 272 271 22
3 271 272 273
3 75 273 270
3 273 69 274
3 270 274 76
3 274 270 273
3 18 276 282
3 276 78 275
3 282 275 80
3 275 282 276
3 78 230 278
3 230 19 277
3 278 277 77
3 277 278 230
3 80 281 280
3 281 77 279
3 280 279 24
3 279 280 281
3 77 281 278
3 281 80 275
3 278 275 78
3 275 278 281
3 18 282 264
3 282 80 288
3 264 288 73
3 288 264 282
3 80 280 284
3 280 24 283
3 284 283 79
3 283 284 280
3 73 287 286
3 287 79 285
3 286 285 23
3 285 286 287
3 79 287 284
3 287 73 288
3 284 288 80
3 288 284 287
2 0 82
2 82 26
2 26 85
2 85 1
2 27 88
2 88 0
2 5 91
2 91 27
2 1 96
2 96 30
2 30 99
2 99 2
2 2 109
2 109 33
2 33 112
2 112 3
2 3 121
2 121 36
2 36 124
2 124 4
2 4 130
2 130 37
2 37 131
2 131 9
2 40 141
2 141 5
2 10 144
2 144 40
2 9 174
2 174 48
2 48 176
2 176 14
2 53 191
2 191 10
2 15 194
2 194 53
2 14 224
2 224 61
2 61 226
2 226 19
2 65 235
2 235 15
2 20 239
2 239 65
2 68 243
2 243 20
2 21 246
2 246 68
2 22 256
2 256 71
2 71 258
2 258 21
2 23 269
2 269 75
2 75 271
2 271 22
2 19 277
2 277 77
2 77 279
2 279 24
2 24 283
2 283 79
2 79 285
2 285 23

CELL_TYPES 576
5 5 5 5 5 5 5 5 5 5 5 5 5 5 5 5 5 5 5 5 5 5 5 5 5 5 5 5 5 5 5 5 5 5 5 5 5 5 5 5 5 5 5 5 5 5 5 5 5 5 5 5 5 5 5 5 5 5 5 5 5 5 5 5 5 5 5 5 5 5 5 5 5 5 5 5 5 5 5 5 5 5 5 5 5 5 5 5 5 5 5 5 5 5 5 5 5 5 5 5 5 5 5 5 5 5 5 5 5 5 5 5 5 5 5 5 5 5 5 5 5 5 5 5 5 5 5 5 5 5 5 5 5 5 5 5 5 5 5 5 5 5 5 5 5 5 5 5 5 5 5 5 5 5 5 5 5 5 5 5 5 5 5 5 5 5 5 5 5 5 5 5 5 5 5 5 5 5 5 5 5 5 5 5 5 5 5 5 5 5 5 5 5 5 5 5 5 5 5 5 5 5 5 5 5 5 5 5 5 5 5 5 5 5 5 5 5 5 5 5 5 5 5 5 5 5 5 5 5 5 5 5 5 5 5 5 5 5 5 5 5 5 5 5 5 5 5 5 5 5 5 5 5 5 5 5 5 5 5 5 5 5 5 5 5 5 5 5 5 5 5 5 5 5 5 5 5 5 5 5 5 5 5 5 5 5 5 5 5 5 5 5 5 5 5 5 5 5 5 5 5 5 5 5 5 5 5 5 5 5 5 5 5 5 5 5 5 5 5 5 5 5 5 5 5 5 5 5 5 5 5 5 5 5 5 5 5 5 5 5 5 5 5 5 5 5 5 5 5 5 5 5 5 5 5 5 5 5 5 5 5 5 5 5 5 5 5 5 5 5 5 5 5 5 5 5 5 5 5 5 5 5 5 5 5 5 5 5 5 5 5 5 5 5 5 5 5 5 5 5 5 5 5 5 5 5 5 5 5 5 5 5 5 5 5 5 5 5 5 5 5 5 5 5 5 5 5 5 5 5 5 5 5 5 5 5 5 5 5 5 5 5 5 5 5 5 5 5 5 5 5 5 5 5 5 5 5 5 5 5 5 5 5 5 5 5 5 5 5 5 5 5 5 5 5 5 5 5 5 5 5 5 5 5 5 5 5 5 5 5 5 5 5 5 5 5 5 5 5 5 5 5 5 5 5 5 5 5 5 5 5 5 3 3 3 3 3 3 3 3 3 3 3 3 3 3 3 3 3 3 3 3 3 3 3 3 3 3 3 3 3 3 3 3 3 3 3 3 3 3 3 3 3 3 3 3 3 3 3 3 3 3 3 3 3 3 3 3 3 3 3 3 3 3 3 3 
CELL_DATA 576
Scalars  Label int 1
LOOKUP_TABLE FreeFempp_table
0
0
0
0
0
0
0
0
0
0
0
0
0
0
0
0
0
0
0
0
0
0
0
0
0
0
0
0
0
0
0
0
0
0
0
0
0
0
0
0
0
0
0
0
0
0
0
0
0
0
0
0
0
0
0
0
0
0
0
0
0
0
0
0
0
0
0
0
0
0
0
0
0
0
0
0
0
0
0
0
0
0
0
0
0
0
0
0
0
0
0
0
0
0
0
0
0
0
0
0
0
0
0
0
0
0
0
0
0
0
0
0
0
0
0
0
0
0
0
0
0
0
0
0
0
0
0
0
0
0
0
0
0
0
0
0
0
0
0
0
0
0
0
0
0
0
0
0
0
0
0
0
0
0
0
0
0
0
0
0
0
0
0
0
0
0
0
0
0
0
0
0
0
0
0
0
0
0
0
0
0
0
0
0
0
0
0
0
0
0
0
0
0
0
0
0
0
0
0
0
0
0
0
0
0
0
0
0
0
0
0
0
0
0
0
0
0
0
0
0
0
0
0
0
0
0
0
0
0
0
0
0
0
0
0
0
0
0
0
0
0
0
0
0
0
0
0
0
0
0
0
0
0
0
0
0
0
0
0
0
0
0
0
0
0
0
0
0
0
0
0
0
0
0
0
0
0
0
0
0
0
0
0
0
0
0
0
0
0
0
0
0
0
0
0
0
0
0
0
0
0
0
0
0
0
0
0
0
0
0
0
0
0
0
0
0
0
0
0
0
0
0
0
0
0
0
0
0
0
0
0
0
0
0
0
0
0
0
0
0
0
0
0
0
0
0
0
0
0
0
0
0
0
0
0
0
0
0
0
0
0
0
0
0
0
0
0
0
0
0
0
0
0
0
0
0
0
0
0
0
0
0
0
0
0
0
0
0
0
0
0
0
0
0
0
0
0
0
0
0
0
0
0
0
0
0
0
0
0
0
0
0
0
0
0
0
0
0
0
0
0
0
0
0
0
0
0
0
0
0
0
0
0
0
0
0
0
0
0
0
0
0
0
0
0
0
0
0
0
0
0
0
0
0
0
0
0
0
0
0
0
0
0
0
0
0
0
0
0
0
0
0
0
0
0
0
0
0
0
0
0
0
0
0
0
0
0
0
0
0
0
0
0
0
0
0
0
0
0
0
0
0
0
0
0
0
0
0
0
0
0
0
1
1
1
1
4
4
4
4
1
1
1
1
1
1
1
1
1
1
1
1
2
2
2
2
4
4
4
4
2
2
2
2
4
4
4
4
2
2
2
2
4
4
4
4
3
3
3
3
3
3
3
3
3
3
3
3
2
2
2
2
3
3
3
3

LOOKUP_TABLE FreeFempp_table 5
1.00000000 0.00000000 0.00000000 1.00000000
1.00000000 1.00000000 0.00000000 1.00000000
1.00000000 0.00000000 1.00000000 1.00000000
0.00000000 1.00000000 0.00000000 1.00000000
0.00000000 1.00000000 1.00000000 1.00000000

FIELD FieldData 1
Pressure 1 576 float
1.30502477e-01 3.21447849e-01 3.18093300e-01 2.58091211e-01 5.00064194e-01 6.59468889e-01 6.52869642e-01 6.07333601e-01 4.85778272e-01 6.40815854e-01 6.22875631e-01 5.86659074e-01 5.99590957e-01 4.35475767e-01 4.41178501e-01 4.94981259e-01 6.51574209e-02 2.54673898e-01 6.42457455e-02 1.29078567e-01 4.26018685e-01 5.68242490e-01 4.12584424e-01 4.72120374e-01 6.27840310e-02 2.41155326e-01 6.07371293e-02 1.22946680e-01 3.03265542e-01 1.26589537e-01 3.12106341e-01 2.49074414e-01 7.93530047e-01 8.97094488e-01 8.88265312e-01 8.64137113e-01 9.66181815e-01 9.98136997e-01 9.88401651e-01 9.89367843e-01 9.39228654e-01 9.70365822e-01 9.43399549e-01 9.56174672e-01 9.77021098e-01 9.33080673e-01 9.44910944e-01 9.56720531e-01 7.50150859e-01 8.53273630e-01 7.40667343e-01 7.85667062e-01 9.13137376e-01 9.26376700e-01 8.84646237e-01 9.13094044e-01 7.24758863e-01 8.08907032e-01 7.02069819e-01 7.49691904e-01 8.47686946e-01 7.71224856e-01 8.71986866e-01 8.34997773e-01 9.91731703e-01 9.47211146e-01 9.38026011e-01 9.63956118e-01 8.66282821e-01 7.52048969e-01 7.44729817e-01 7.91738570e-01 8.42304885e-01 7.31187880e-01 7.10967958e-01 7.65306473e-01 7.81912804e-01 8.83961856e-01 8.95058453e-01 8.57889712e-01 9.95799005e-01 9.51986670e-01 9.83405650e-01 9.82090294e-01 8.65180969e-01 7.41579056e-01 8.38311493e-01 8.18982899e-01 9.62455094e-01 9.02762413e-01 9.32494581e-01 9.37438071e-01 8.95434439e-01 9.64200914e-01 9.20966506e-01 9.31734681e-01 6.59493446e-01 5.00077665e-01 6.52963221e-01 6.07374012e-01 3.21455657e-01 1.30506247e-01 3.18121314e-01 2.58103371e-01 6.40983760e-01 4.85878915e-01 6.23188317e-01 5.86834908e-01 4.35526073e-01 5.99684894e-01 4.41199869e-01 4.95029092e-01 5.68627000e-01 4.26143020e-01 4.12951052e-01 4.72387671e-01 2.54704148e-01 6.51611760e-02 6.42549470e-02 1.29091710e-01 2.41469309e-01 6.28140345e-02 6.08501025e-02 1.23086102e-01 1.26627401e-01 3.03502589e-01 3.12177956e-01 2.49166235e-01 1.18136287e-01 2.91539222e-01 2.77013063e-01 2.30932206e-01 4.53963995e-01 5.98996341e-01 5.69357455e-01 5.44385612e-01 4.04771000e-01 5.34235537e-01 4.93967772e-01 4.81232852e-01 5.15290499e-01 3.74020398e-01 3.95202905e-01 4.31444347e-01 5.81103414e-02 2.18489826e-01 5.49255013e-02 1.12192661e-01 3.49236935e-01 4.42540288e-01 3.21090758e-01 3.74199748e-01 5.12123480e-02 1.87436819e-01 4.70064767e-02 9.71355438e-02 2.40128160e-01 1.05170116e-01 2.59821236e-01 2.03944832e-01 7.21008301e-01 8.15300643e-01 7.75072694e-01 7.75068164e-01 8.78248632e-01 9.07433331e-01 8.62739265e-01 8.87705088e-01 7.83620536e-01 8.09734881e-01 7.48929024e-01 7.85175741e-01 8.40488911e-01 8.02556515e-01 8.47681046e-01 8.34955931e-01 6.72656953e-01 7.33769119e-01 6.36770189e-01 6.85390592e-01 7.49700427e-01 7.22297430e-01 6.89621210e-01 7.24735260e-01 5.94749928e-01 6.30430579e-01 5.47000289e-01 5.94756305e-01 6.72677517e-01 6.43171489e-01 7.27379024e-01 6.85401499e-01 9.01732743e-01 8.61363173e-01 8.19008529e-01 8.65144551e-01 7.87863851e-01 6.84032261e-01 6.50517344e-01 7.10785508e-01 7.03252733e-01 6.10699952e-01 5.64985156e-01 6.28977239e-01 6.73132956e-01 7.60794103e-01 8.03420007e-01 7.49170005e-01 8.93602252e-01 8.19199681e-01 8.46108735e-01 8.57354879e-01 7.10835695e-01 5.78755796e-01 6.54027283e-01 6.50556207e-01 7.90464282e-01 7.04151869e-01 7.27203846e-01 7.44329393e-01 7.11113095e-01 8.04718733e-01 7.68764436e-01 7.65362918e-01 5.53874969e-01 4.02440995e-01 3.82912070e-01 4.48091894e-01 2.35564142e-01 5.96744642e-02 5.68677336e-02 1.17171407e-01 2.10649714e-01 5.34786507e-02 4.95642014e-02 1.03941768e-01 1.11115351e-01 2.73099422e-01 2.88171589e-01 2.24235877e-01 5.90795279e-01 4.24512595e-01 5.59583783e-01 5.26845276e-01 2.55319774e-01 9.57551301e-02 2.35060513e-01 1.95004106e-01 5.22931933e-01 3.65186781e-01 4.81228501e-01 4.57686305e-01 3.32773298e-01 4.94661778e-01 3.59591573e-01 3.96770686e-01 8.81671757e-02 2.18124926e-01 1.94034338e-01 1.69127464e-01 3.40026468e-01 4.48943019e-01 3.99601936e-01 3.99587899e-01 2.62305290e-01 3.46454054e-01 2.90125549e-01 3.02704990e-01 3.52803737e-01 2.55852461e-01 2.89856046e-01 3.02590668e-01 4.23493460e-02 1.49209931e-01 3.72914709e-02 7.83578306e-02 2.19495475e-01 2.49952331e-01 1.81370080e-01 2.19733953e-01 3.19092236e-02 1.05801217e-01 2.63437442e-02 5.68176098e-02 1.40887767e-01 6.78347275e-02 1.68143287e-01 1.27956897e-01 5.40611863e-01 6.11495137e-01 5.44421911e-01 5.69386244e-01 6.58867002e-01 6.80907011e-01 6.06323719e-01 6.52459502e-01 5.08780539e-01 5.25897086e-01 4.40401077e-01 4.94654477e-01 5.76334238e-01 5.50172031e-01 6.22897446e-01 5.86650193e-01 4.93982583e-01 5.02858877e-01 4.36215043e-01 4.81262803e-01 4.72146571e-01 4.08206284e-01 3.89573365e-01 4.26008284e-01 3.74286354e-01 3.56004000e-01 3.08865398e-01 3.49363267e-01 3.95254672e-01 4.17294919e-01 4.72107291e-01 4.31497991e-01 6.76768363e-01 6.46610022e-01 5.75876415e-01 6.36156142e-01 5.91590762e-01 5.13824224e-01 4.57712382e-01 5.22957206e-01 4.57181782e-01 3.97190154e-01 3.32839936e-01 3.96829009e-01 4.62119699e-01 5.22112906e-01 5.90917051e-01 5.26925087e-01 6.56936407e-01 5.62030375e-01 5.80338538e-01 6.02685988e-01 4.48277116e-01 3.27713251e-01 3.70120019e-01 3.83031964e-01 4.98147309e-01 3.98294091e-01 4.11153615e-01 4.37865138e-01 4.18494314e-01 5.22795320e-01 4.99593168e-01 4.82487887e-01 4.16296393e-01 3.02742869e-01 2.69795179e-01 3.30081433e-01 1.77474499e-01 4.51704748e-02 4.03414108e-02 8.66441205e-02 1.37470618e-01 3.51237729e-02 2.95677818e-02 6.60138130e-02 7.66983330e-02 1.87958762e-01 2.12533474e-01 1.58234656e-01 4.34886485e-01 2.91795790e-01 3.84354234e-01 3.70895147e-01 1.61573455e-01 5.46932630e-02 1.33631274e-01 1.15382262e-01 3.30118537e-01 2.07185820e-01 2.72701055e-01 2.69843340e-01 1.96444377e-01 3.21920365e-01 2.34248310e-01 2.50698835e-01 2.35126857e-02 9.15697739e-02 1.75926704e-02 4.25710715e-02 1.56017289e-01 2.14336351e-01 1.15241513e-01 1.61108658e-01 1.13748014e-02 4.31962833e-02 4.94706398e-03 1.79170184e-02 7.39818141e-02 3.04918569e-02 1.03926957e-01 6.78897798e-02 4.94275987e-03 4.29922491e-02 1.12204421e-02 1.77786499e-02 1.14315055e-01 2.11880997e-01 1.49961218e-01 1.57907382e-01 1.69724040e-02 8.64317268e-02 2.19791047e-02 4.03220691e-02 9.96841043e-02 2.97010653e-02 7.29786009e-02 6.61172047e-02 2.78140962e-01 3.14604998e-01 2.30924651e-01 2.77092516e-01 3.39130402e-01 3.50658774e-01 2.57538378e-01 3.17822486e-01 1.56485334e-01 1.61962464e-01 6.49351254e-02 1.28836498e-01 2.24382788e-01 2.14005813e-01 3.03246439e-01 2.48987660e-01 2.40546450e-01 1.95503250e-01 1.69811472e-01 2.04212964e-01 1.22777954e-01 3.22259106e-02 3.06176003e-02 6.26429245e-02 9.73884910e-02 2.78623980e-02 2.41454616e-02 5.12237214e-02 5.79776354e-02 1.28274933e-01 1.45052642e-01 1.12088956e-01 3.48712802e-01 3.33359927e-01 2.45008275e-01 3.10259044e-01 3.05188477e-01 2.65279859e-01 1.95153013e-01 2.55435765e-01 1.41413331e-01 1.23100564e-01 4.97075170e-02 1.04125820e-01 1.80681944e-01 2.03877017e-01 2.88392842e-01 2.24396259e-01 3.20195198e-01 2.19230279e-01 2.26152986e-01 2.56198227e-01 1.17363602e-01 2.63866484e-02 2.96249222e-02 5.69748953e-02 1.29958808e-01 3.17231193e-02 3.26009765e-02 6.47368208e-02 6.20494559e-02 1.61223218e-01 1.54285401e-01 1.26085982e-01 2.15163723e-01 1.56745598e-01 1.15523413e-01 1.61672562e-01 9.21808854e-02 2.37265415e-02 1.76539216e-02 4.28441875e-02 4.32669260e-02 1.13953194e-02 4.95559722e-03 1.79469977e-02 3.05715669e-02 7.41391107e-02 1.04398400e-01 6.80809543e-02 2.12651789e-01 1.14579320e-01 1.50534004e-01 1.58398315e-01 4.30616774e-02 4.95131873e-03 1.12403594e-02 1.78083014e-02 8.68794844e-02 1.70225054e-02 2.21321937e-02 4.05248292e-02 2.97700688e-02 1.00047395e-01 7.31209144e-02 6.62776455e-02 1.30502477e-01 3.21447849e-01 5.00064194e-01 6.59468889e-01 6.42457455e-02 6.51574209e-02 6.07371293e-02 6.27840310e-02 7.93530047e-01 8.97094488e-01 9.66181815e-01 9.98136997e-01 9.91731703e-01 9.47211146e-01 8.66282821e-01 7.52048969e-01 6.59493446e-01 5.00077665e-01 3.21455657e-01 1.30506247e-01 6.51611760e-02 6.42549470e-02 6.28140345e-02 6.08501025e-02 5.49255013e-02 5.81103414e-02 4.70064767e-02 5.12123480e-02 5.96744642e-02 5.68677336e-02 5.34786507e-02 4.95642014e-02 3.72914709e-02 4.23493460e-02 2.63437442e-02 3.19092236e-02 4.51704748e-02 4.03414108e-02 3.51237729e-02 2.95677818e-02 1.75926704e-02 2.35126857e-02 4.94706398e-03 1.13748014e-02 1.12204421e-02 4.94275987e-03 2.19791047e-02 1.69724040e-02 3.22259106e-02 3.06176003e-02 2.78623980e-02 2.41454616e-02 2.63866484e-02 2.96249222e-02 3.17231193e-02 3.26009765e-02 2.37265415e-02 1.76539216e-02 1.13953194e-02 4.95559722e-03 4.95131873e-03 1.12403594e-02 1.70225054e-02 2.21321937e-02 
POINT_DATA 289
FIELD FieldData 2
Velocity 3 289 float