# vtk DataFile Version 2.0
./pics/Solution_1_5.vtk, Created by Freefem++ 
ASCII
DATASET UNSTRUCTURED_GRID
POINTS 289 float
0 0 0
0.25 0 0
0.5 0 0
0.75 0 0
1 0 0
0 0.25 0
0.25 0.25 0
0.5 0.25 0
0.75 0.25 0
1 0.25 0
0 0.5 0
0.25 0.5 0
0.5 0.5 0
0.75 0.5 0
1 0.5 0
0 0.75 0
0.25 0.75 0
0.5 0.75 0
0.75 0.75 0
1 0.75 0
0 1 0
0.25 1 0
0.5 1 0
0.75 1 0
1 1 0
0.25 0.125 0
0.125 0 0
0 0.125 0
0.125 0.125 0
0.5 0.125 0
0.375 0 0
0.375 0.125 0
0.75 0.125 0
0.625 0 0
0.625 0.125 0
0.875 0.125 0
0.875 0 0
1 0.125 0
0.25 0.375 0
0.125 0.25 0
0 0.375 0
0.125 0.375 0
0.5 0.375 0
0.375 0.25 0
0.375 0.375 0
0.75 0.375 0
0.625 0.25 0
0.625 0.375 0
1 0.375 0
0.875 0.25 0
0.875 0.375 0
0.25 0.625 0
0.125 0.5 0
0 0.625 0
0.125 0.625 0
0.5 0.625 0
0.375 0.5 0
0.375 0.625 0
0.75 0.625 0
0.625 0.5 0
0.625 0.625 0
1 0.625 0
0.875 0.5 0
0.875 0.625 0
0.125 0.875 0
0 0.875 0
0.125 0.75 0
0.25 0.875 0
0.125 1 0
0.5 0.875 0
0.375 0.75 0
0.375 1 0
0.375 0.875 0
0.75 0.875 0
0.625 0.75 0
0.625 1 0
0.625 0.875 0
1 0.875 0
0.875 0.75 0
0.875 1 0
0.875 0.875 0
0.125 0.0625 0
0.0625 0 0
0.25 0.0625 0
0.1875 0.0625 0
0.1875 0 0
0.1875 0.1875 0
0.1875 0.125 0
0 0.0625 0
0.0625 0.0625 0
0.1875 0.25 0
0 0.1875 0
0.0625 0.1875 0
0.0625 0.125 0
0.125 0.1875 0
0.375 0.0625 0
0.3125 0 0
0.5 0.0625 0
0.4375 0.0625 0
0.4375 0 0
0.4375 0.1875 0
0.4375 0.125 0
0.3125 0.0625 0
0.4375 0.25 0
0.25 0.1875 0
0.3125 0.1875 0
0.3125 0.125 0
0.375 0.1875 0
0.625 0.0625 0
0.5625 0 0
0.75 0.0625 0
0.6875 0.0625 0
0.6875 0 0
0.6875 0.1875 0
0.6875 0.125 0
0.5625 0.0625 0
0.6875 0.25 0
0.5 0.1875 0
0.5625 0.1875 0
0.5625 0.125 0
0.625 0.1875 0
0.8125 0 0
0.9375 0.0625 0
0.875 0.0625 0
0.9375 0 0
0.75 0.1875 0
0.8125 0.125 0
0.8125 0.0625 0
0.875 0.1875 0
0.8125 0.1875 0
1 0.0625 0
1 0.1875 0
0.9375 0.25 0
0.9375 0.125 0
0.9375 0.1875 0
0.125 0.3125 0
0.0625 0.25 0
0.25 0.3125 0
0.1875 0.3125 0
0.1875 0.4375 0
0.1875 0.375 0
0 0.3125 0
0.0625 0.3125 0
0.1875 0.5 0
0 0.4375 0
0.0625 0.4375 0
0.0625 0.375 0
0.125 0.4375 0
0.375 0.3125 0
0.3125 0.25 0
0.5 0.3125 0
0.4375 0.3125 0
0.4375 0.4375 0
0.4375 0.375 0
0.3125 0.3125 0
0.4375 0.5 0
0.25 0.4375 0
0.3125 0.4375 0
0.3125 0.375 0
0.375 0.4375 0
0.625 0.3125 0
0.5625 0.25 0
0.75 0.3125 0
0.6875 0.3125 0
0.6875 0.4375 0
0.6875 0.375 0
0.5625 0.3125 0
0.6875 0.5 0
0.5 0.4375 0
0.5625 0.4375 0
0.5625 0.375 0
0.625 0.4375 0
0.875 0.3125 0
0.8125 0.25 0
1 0.3125 0
0.9375 0.3125 0
1 0.4375 0
0.9375 0.4375 0
0.9375 0.375 0
0.8125 0.3125 0
0.9375 0.5 0
0.75 0.4375 0
0.8125 0.4375 0
0.8125 0.375 0
0.875 0.4375 0
0.125 0.5625 0
0.0625 0.5 0
0.25 0.5625 0
0.1875 0.5625 0
0.1875 0.6875 0
0.1875 0.625 0
0 0.5625 0
0.0625 0.5625 0
0.1875 0.75 0
0 0.6875 0
0.0625 0.6875 0
0.0625 0.625 0
0.125 0.6875 0
0.375 0.5625 0
0.3125 0.5 0
0.5 0.5625 0
0.4375 0.5625 0
0.4375 0.6875 0
0.4375 0.625 0
0.3125 0.5625 0
0.4375 0.75 0
0.25 0.6875 0
0.3125 0.6875 0
0.3125 0.625 0
0.375 0.6875 0
0.625 0.5625 0
0.5625 0.5 0
0.75 0.5625 0
0.6875 0.5625 0
0.6875 0.6875 0
0.6875 0.625 0
0.5625 0.5625 0
0.6875 0.75 0
0.5 0.6875 0
0.5625 0.6875 0
0.5625 0.625 0
0.625 0.6875 0
0.875 0.5625 0
0.8125 0.5 0
1 0.5625 0
0.9375 0.5625 0
1 0.6875 0
0.9375 0.6875 0
0.9375 0.625 0
0.8125 0.5625 0
0.9375 0.75 0
0.75 0.6875 0
0.8125 0.6875 0
0.8125 0.625 0
0.875 0.6875 0
0 0.8125 0
0.0625 0.75 0
0.1875 0.8125 0
0.125 0.8125 0
0 0.9375 0
0.0625 0.8125 0
0.0625 0.875 0
0.125 0.9375 0
0.0625 1 0
0.0625 0.9375 0
0.25 0.8125 0
0.1875 1 0
0.1875 0.875 0
0.1875 0.9375 0
0.375 0.8125 0
0.3125 0.75 0
0.5 0.8125 0
0.4375 0.8125 0
0.4375 0.9375 0
0.4375 0.875 0
0.3125 0.8125 0
0.4375 1 0
0.375 0.9375 0
0.3125 1 0
0.25 0.9375 0
0.3125 0.9375 0
0.3125 0.875 0
0.625 0.8125 0
0.5625 0.75 0
0.75 0.8125 0
0.6875 0.8125 0
0.6875 0.9375 0
0.6875 0.875 0
0.5625 0.8125 0
0.6875 1 0
0.625 0.9375 0
0.5625 1 0
0.5 0.9375 0
0.5625 0.9375 0
0.5625 0.875 0
0.875 0.8125 0
0.8125 0.75 0
1 0.8125 0
0.9375 0.8125 0
1 0.9375 0
0.9375 0.9375 0
0.9375 0.875 0
0.8125 0.8125 0
0.9375 1 0
0.875 0.9375 0
0.8125 1 0
0.75 0.9375 0
0.8125 0.9375 0
0.8125 0.875 0

CELLS 576 2240
3 0 82 89
3 82 26 81
3 89 81 28
3 81 89 82
3 26 85 84
3 85 1 83
3 84 83 25
3 83 84 85
3 28 87 86
3 87 25 104
3 86 104 6
3 104 86 87
3 25 87 84
3 87 28 81
3 84 81 26
3 81 84 87
3 0 89 88
3 89 28 93
3 88 93 27
3 93 88 89
3 28 86 94
3 86 6 90
3 94 90 39
3 90 94 86
3 27 92 91
3 92 39 136
3 91 136 5
3 136 91 92
3 39 92 94
3 92 27 93
3 94 93 28
3 93 94 92
3 1 96 102
3 96 30 95
3 102 95 31
3 95 102 96
3 30 99 98
3 99 2 97
3 98 97 29
3 97 98 99
3 31 101 100
3 101 29 117
3 100 117 7
3 117 100 101
3 29 101 98
3 101 31 95
3 98 95 30
3 95 98 101
3 1 102 83
3 102 31 106
3 83 106 25
3 106 83 102
3 31 100 107
3 100 7 103
3 107 103 43
3 103 107 100
3 25 105 104
3 105 43 149
3 104 149 6
3 149 104 105
3 43 105 107
3 105 25 106
3 107 106 31
3 106 107 105
3 2 109 115
3 109 33 108
3 115 108 34
3 108 115 109
3 33 112 111
3 112 3 110
3 111 110 32
3 110 111 112
3 34 114 113
3 114 32 125
3 113 125 8
3 125 113 114
3 32 114 111
3 114 34 108
3 111 108 33
3 108 111 114
3 2 115 97
3 115 34 119
3 97 119 29
3 119 97 115
3 34 113 120
3 113 8 116
3 120 116 46
3 116 120 113
3 29 118 117
3 118 46 161
3 117 161 7
3 161 117 118
3 46 118 120
3 118 29 119
3 120 119 34
3 119 120 118
3 3 121 110
3 121 36 127
3 110 127 32
3 127 110 121
3 36 124 123
3 124 4 122
3 123 122 35
3 122 123 124
3 32 126 125
3 126 35 129
3 125 129 8
3 129 125 126
3 35 126 123
3 126 32 127
3 123 127 36
3 127 123 126
3 8 129 173
3 129 35 128
3 173 128 49
3 128 173 129
3 35 122 133
3 122 4 130
3 133 130 37
3 130 133 122
3 49 134 132
3 134 37 131
3 132 131 9
3 131 132 134
3 37 134 133
3 134 49 128
3 133 128 35
3 128 133 134
3 5 136 142
3 136 39 135
3 142 135 41
3 135 142 136
3 39 90 138
3 90 6 137
3 138 137 38
3 137 138 90
3 41 140 139
3 140 38 156
3 139 156 11
3 156 139 140
3 38 140 138
3 140 41 135
3 138 135 39
3 135 138 140
3 5 142 141
3 142 41 146
3 141 146 40
3 146 141 142
3 41 139 147
3 139 11 143
3 147 143 52
3 143 147 139
3 40 145 144
3 145 52 186
3 144 186 10
3 186 144 145
3 52 145 147
3 145 40 146
3 147 146 41
3 146 147 145
3 6 149 154
3 149 43 148
3 154 148 44
3 148 154 149
3 43 103 151
3 103 7 150
3 151 150 42
3 150 151 103
3 44 153 152
3 153 42 168
3 152 168 12
3 168 152 153
3 42 153 151
3 153 44 148
3 151 148 43
3 148 151 153
3 6 154 137
3 154 44 158
3 137 158 38
3 158 137 154
3 44 152 159
3 152 12 155
3 159 155 56
3 155 159 152
3 38 157 156
3 157 56 199
3 156 199 11
3 199 156 157
3 56 157 159
3 157 38 158
3 159 158 44
3 158 159 157
3 7 161 166
3 161 46 160
3 166 160 47
3 160 166 161
3 46 116 163
3 116 8 162
3 163 162 45
3 162 163 116
3 47 165 164
3 165 45 181
3 164 181 13
3 181 164 165
3 45 165 163
3 165 47 160
3 163 160 46
3 160 163 165
3 7 166 150
3 166 47 170
3 150 170 42
3 170 150 166
3 47 164 171
3 164 13 167
3 171 167 59
3 167 171 164
3 42 169 168
3 169 59 211
3 168 211 12
3 211 168 169
3 59 169 171
3 169 42 170
3 171 170 47
3 170 171 169
3 8 173 179
3 173 49 172
3 179 172 50
3 172 179 173
3 49 132 175
3 132 9 174
3 175 174 48
3 174 175 132
3 50 178 177
3 178 48 176
3 177 176 14
3 176 177 178
3 48 178 175
3 178 50 172
3 175 172 49
3 172 175 178
3 8 179 162
3 179 50 183
3 162 183 45
3 183 162 179
3 50 177 184
3 177 14 180
3 184 180 62
3 180 184 177
3 45 182 181
3 182 62 223
3 181 223 13
3 223 181 182
3 62 182 184
3 182 45 183
3 184 183 50
3 183 184 182
3 10 186 192
3 186 52 185
3 192 185 54
3 185 192 186
3 52 143 188
3 143 11 187
3 188 187 51
3 187 188 143
3 54 190 189
3 190 51 206
3 189 206 16
3 206 189 190
3 51 190 188
3 190 54 185
3 188 185 52
3 185 188 190
3 10 192 191
3 192 54 196
3 191 196 53
3 196 191 192
3 54 189 197
3 189 16 193
3 197 193 66
3 193 197 189
3 53 195 194
3 195 66 236
3 194 236 15
3 236 194 195
3 66 195 197
3 195 53 196
3 197 196 54
3 196 197 195
3 11 199 204
3 199 56 198
3 204 198 57
3 198 204 199
3 56 155 201
3 155 12 200
3 201 200 55
3 200 201 155
3 57 203 202
3 203 55 218
3 202 218 17
3 218 202 203
3 55 203 201
3 203 57 198
3 201 198 56
3 198 201 203
3 11 204 187
3 204 57 208
3 187 208 51
3 208 187 204
3 57 202 209
3 202 17 205
3 209 205 70
3 205 209 202
3 51 207 206
3 207 70 250
3 206 250 16
3 250 206 207
3 70 207 209
3 207 51 208
3 209 208 57
3 208 209 207
3 12 211 216
3 211 59 210
3 216 210 60
3 210 216 211
3 59 167 213
3 167 13 212
3 213 212 58
3 212 213 167
3 60 215 214
3 215 58 231
3 214 231 18
3 231 214 215
3 58 215 213
3 215 60 210
3 213 210 59
3 210 213 215
3 12 216 200
3 216 60 220
3 200 220 55
3 220 200 216
3 60 214 221
3 214 18 217
3 221 217 74
3 217 221 214
3 55 219 218
3 219 74 263
3 218 263 17
3 263 218 219
3 74 219 221
3 219 55 220
3 221 220 60
3 220 221 219
3 13 223 229
3 223 62 222
3 229 222 63
3 222 229 223
3 62 180 225
3 180 14 224
3 225 224 61
3 224 225 180
3 63 228 227
3 228 61 226
3 227 226 19
3 226 227 228
3 61 228 225
3 228 63 222
3 225 222 62
3 222 225 228
3 13 229 212
3 229 63 233
3 212 233 58
3 233 212 229
3 63 227 234
3 227 19 230
3 234 230 78
3 230 234 227
3 58 232 231
3 232 78 276
3 231 276 18
3 276 231 232
3 78 232 234
3 232 58 233
3 234 233 63
3 233 234 232
3 15 236 235
3 236 66 240
3 235 240 65
3 240 235 236
3 66 193 238
3 193 16 237
3 238 237 64
3 237 238 193
3 65 241 239
3 241 64 244
3 239 244 20
3 244 239 241
3 64 241 238
3 241 65 240
3 238 240 66
3 240 238 241
3 20 244 243
3 244 64 242
3 243 242 68
3 242 243 244
3 64 237 247
3 237 16 245
3 247 245 67
3 245 247 237
3 68 248 246
3 248 67 259
3 246 259 21
3 259 246 248
3 67 248 247
3 248 68 242
3 247 242 64
3 242 247 248
3 16 250 255
3 250 70 249
3 255 249 72
3 249 255 250
3 70 205 252
3 205 17 251
3 252 251 69
3 251 252 205
3 72 254 253
3 254 69 272
3 253 272 22
3 272 253 254
3 69 254 252
3 254 72 249
3 252 249 70
3 249 252 254
3 16 255 245
3 255 72 261
3 245 261 67
3 261 245 255
3 72 253 257
3 253 22 256
3 257 256 71
3 256 257 253
3 67 260 259
3 260 71 258
3 259 258 21
3 258 259 260
3 71 260 257
3 260 67 261
3 257 261 72
3 261 257 260
3 17 263 268
3 263 74 262
3 268 262 76
3 262 268 263
3 74 217 265
3 217 18 264
3 265 264 73
3 264 265 217
3 76 267 266
3 267 73 286
3 266 286 23
3 286 266 267
3 73 267 265
3 267 76 262
3 265 262 74
3 262 265 267
3 17 268 251
3 268 76 274
3 251 274 69
3 274 251 268
3 76 266 270
3 266 23 269
3 270 269 75
3 269 270 266
3 69 273 272
3 273 75 271
3 272 271 22
3 271 272 273
3 75 273 270
3 273 69 274
3 270 274 76
3 274 270 273
3 18 276 282
3 276 78 275
3 282 275 80
3 275 282 276
3 78 230 278
3 230 19 277
3 278 277 77
3 277 278 230
3 80 281 280
3 281 77 279
3 280 279 24
3 279 280 281
3 77 281 278
3 281 80 275
3 278 275 78
3 275 278 281
3 18 282 264
3 282 80 288
3 264 288 73
3 288 264 282
3 80 280 284
3 280 24 283
3 284 283 79
3 283 284 280
3 73 287 286
3 287 79 285
3 286 285 23
3 285 286 287
3 79 287 284
3 287 73 288
3 284 288 80
3 288 284 287
2 0 82
2 82 26
2 26 85
2 85 1
2 27 88
2 88 0
2 5 91
2 91 27
2 1 96
2 96 30
2 30 99
2 99 2
2 2 109
2 109 33
2 33 112
2 112 3
2 3 121
2 121 36
2 36 124
2 124 4
2 4 130
2 130 37
2 37 131
2 131 9
2 40 141
2 141 5
2 10 144
2 144 40
2 9 174
2 174 48
2 48 176
2 176 14
2 53 191
2 191 10
2 15 194
2 194 53
2 14 224
2 224 61
2 61 226
2 226 19
2 65 235
2 235 15
2 20 239
2 239 65
2 68 243
2 243 20
2 21 246
2 246 68
2 22 256
2 256 71
2 71 258
2 258 21
2 23 269
2 269 75
2 75 271
2 271 22
2 19 277
2 277 77
2 77 279
2 279 24
2 24 283
2 283 79
2 79 285
2 285 23

CELL_TYPES 576
5 5 5 5 5 5 5 5 5 5 5 5 5 5 5 5 5 5 5 5 5 5 5 5 5 5 5 5 5 5 5 5 5 5 5 5 5 5 5 5 5 5 5 5 5 5 5 5 5 5 5 5 5 5 5 5 5 5 5 5 5 5 5 5 5 5 5 5 5 5 5 5 5 5 5 5 5 5 5 5 5 5 5 5 5 5 5 5 5 5 5 5 5 5 5 5 5 5 5 5 5 5 5 5 5 5 5 5 5 5 5 5 5 5 5 5 5 5 5 5 5 5 5 5 5 5 5 5 5 5 5 5 5 5 5 5 5 5 5 5 5 5 5 5 5 5 5 5 5 5 5 5 5 5 5 5 5 5 5 5 5 5 5 5 5 5 5 5 5 5 5 5 5 5 5 5 5 5 5 5 5 5 5 5 5 5 5 5 5 5 5 5 5 5 5 5 5 5 5 5 5 5 5 5 5 5 5 5 5 5 5 5 5 5 5 5 5 5 5 5 5 5 5 5 5 5 5 5 5 5 5 5 5 5 5 5 5 5 5 5 5 5 5 5 5 5 5 5 5 5 5 5 5 5 5 5 5 5 5 5 5 5 5 5 5 5 5 5 5 5 5 5 5 5 5 5 5 5 5 5 5 5 5 5 5 5 5 5 5 5 5 5 5 5 5 5 5 5 5 5 5 5 5 5 5 5 5 5 5 5 5 5 5 5 5 5 5 5 5 5 5 5 5 5 5 5 5 5 5 5 5 5 5 5 5 5 5 5 5 5 5 5 5 5 5 5 5 5 5 5 5 5 5 5 5 5 5 5 5 5 5 5 5 5 5 5 5 5 5 5 5 5 5 5 5 5 5 5 5 5 5 5 5 5 5 5 5 5 5 5 5 5 5 5 5 5 5 5 5 5 5 5 5 5 5 5 5 5 5 5 5 5 5 5 5 5 5 5 5 5 5 5 5 5 5 5 5 5 5 5 5 5 5 5 5 5 5 5 5 5 5 5 5 5 5 5 5 5 5 5 5 5 5 5 5 5 5 5 5 5 5 5 5 5 5 5 5 5 5 5 5 5 5 5 5 5 5 5 5 5 5 5 5 5 5 5 5 5 5 5 5 5 5 5 5 5 5 5 5 5 5 5 5 5 5 5 5 5 5 5 5 5 3 3 3 3 3 3 3 3 3 3 3 3 3 3 3 3 3 3 3 3 3 3 3 3 3 3 3 3 3 3 3 3 3 3 3 3 3 3 3 3 3 3 3 3 3 3 3 3 3 3 3 3 3 3 3 3 3 3 3 3 3 3 3 3 
CELL_DATA 576
Scalars  Label int 1
LOOKUP_TABLE FreeFempp_table
0
0
0
0
0
0
0
0
0
0
0
0
0
0
0
0
0
0
0
0
0
0
0
0
0
0
0
0
0
0
0
0
0
0
0
0
0
0
0
0
0
0
0
0
0
0
0
0
0
0
0
0
0
0
0
0
0
0
0
0
0
0
0
0
0
0
0
0
0
0
0
0
0
0
0
0
0
0
0
0
0
0
0
0
0
0
0
0
0
0
0
0
0
0
0
0
0
0
0
0
0
0
0
0
0
0
0
0
0
0
0
0
0
0
0
0
0
0
0
0
0
0
0
0
0
0
0
0
0
0
0
0
0
0
0
0
0
0
0
0
0
0
0
0
0
0
0
0
0
0
0
0
0
0
0
0
0
0
0
0
0
0
0
0
0
0
0
0
0
0
0
0
0
0
0
0
0
0
0
0
0
0
0
0
0
0
0
0
0
0
0
0
0
0
0
0
0
0
0
0
0
0
0
0
0
0
0
0
0
0
0
0
0
0
0
0
0
0
0
0
0
0
0
0
0
0
0
0
0
0
0
0
0
0
0
0
0
0
0
0
0
0
0
0
0
0
0
0
0
0
0
0
0
0
0
0
0
0
0
0
0
0
0
0
0
0
0
0
0
0
0
0
0
0
0
0
0
0
0
0
0
0
0
0
0
0
0
0
0
0
0
0
0
0
0
0
0
0
0
0
0
0
0
0
0
0
0
0
0
0
0
0
0
0
0
0
0
0
0
0
0
0
0
0
0
0
0
0
0
0
0
0
0
0
0
0
0
0
0
0
0
0
0
0
0
0
0
0
0
0
0
0
0
0
0
0
0
0
0
0
0
0
0
0
0
0
0
0
0
0
0
0
0
0
0
0
0
0
0
0
0
0
0
0
0
0
0
0
0
0
0
0
0
0
0
0
0
0
0
0
0
0
0
0
0
0
0
0
0
0
0
0
0
0
0
0
0
0
0
0
0
0
0
0
0
0
0
0
0
0
0
0
0
0
0
0
0
0
0
0
0
0
0
0
0
0
0
0
0
0
0
0
0
0
0
0
0
0
0
0
0
0
0
0
0
0
0
0
0
0
0
0
0
0
0
0
0
0
0
0
0
0
0
0
0
0
0
0
0
0
0
0
0
0
0
0
0
0
0
0
0
0
0
0
0
0
0
0
0
0
0
0
1
1
1
1
4
4
4
4
1
1
1
1
1
1
1
1
1
1
1
1
2
2
2
2
4
4
4
4
2
2
2
2
4
4
4
4
2
2
2
2
4
4
4
4
3
3
3
3
3
3
3
3
3
3
3
3
2
2
2
2
3
3
3
3

LOOKUP_TABLE FreeFempp_table 5
1.00000000 0.00000000 0.00000000 1.00000000
1.00000000 1.00000000 0.00000000 1.00000000
1.00000000 0.00000000 1.00000000 1.00000000
0.00000000 1.00000000 0.00000000 1.00000000
0.00000000 1.00000000 1.00000000 1.00000000

FIELD FieldData 1
Pressure 1 576 float
1.30815804e-01 3.22188288e-01 3.18939626e-01 2.58755654e-01 5.01195550e-01 6.60950124e-01 6.54497862e-01 6.08810127e-01 4.86923933e-01 6.42291605e-01 6.24233007e-01 5.87985635e-01 6.01057529e-01 4.36571538e-01 4.42269027e-01 4.96237576e-01 6.53375387e-02 2.55364686e-01 6.44382313e-02 1.29454419e-01 4.27019298e-01 5.69478631e-01 4.13525015e-01 4.73180056e-01 6.29721880e-02 2.41782472e-01 6.09244704e-02 1.23305678e-01 3.04010361e-01 1.26956284e-01 3.12895834e-01 2.49724641e-01 7.95306146e-01 8.99098277e-01 8.90456140e-01 8.66214812e-01 9.68337059e-01 1.00036144e+00 9.90830183e-01 9.91737187e-01 9.41360474e-01 9.72564936e-01 9.45420027e-01 9.58290994e-01 9.79364157e-01 9.35322285e-01 9.47177410e-01 9.59074736e-01 7.51961470e-01 8.55329216e-01 7.42460251e-01 7.87612259e-01 9.15161908e-01 9.28343773e-01 8.86528075e-01 9.15052772e-01 7.26377845e-01 8.10632527e-01 7.03575373e-01 7.51310170e-01 8.49509478e-01 7.72986114e-01 8.73970509e-01 8.36853921e-01 9.93940353e-01 9.49319184e-01 9.40324724e-01 9.66259718e-01 8.68209541e-01 7.53725648e-01 7.46565163e-01 7.93631673e-01 8.44198883e-01 7.32853472e-01 7.12500036e-01 7.66994894e-01 7.83782303e-01 8.86069834e-01 8.97194922e-01 8.59988093e-01 9.98181045e-01 9.54262972e-01 9.85760927e-01 9.84500647e-01 8.67080867e-01 7.43145227e-01 8.40076208e-01 8.20720792e-01 9.64582264e-01 9.04671371e-01 9.34471428e-01 9.39442396e-01 8.97342741e-01 9.66382921e-01 9.23045039e-01 9.33789194e-01 6.60972774e-01 5.01210630e-01 6.54594362e-01 6.08852208e-01 3.22197378e-01 1.30820096e-01 3.18979949e-01 2.58770466e-01 6.42481923e-01 4.87068802e-01 6.24576688e-01 5.88204801e-01 4.36645329e-01 6.01168692e-01 4.42294538e-01 4.96301204e-01 5.69891095e-01 4.27194059e-01 4.13910002e-01 4.73494738e-01 2.55410850e-01 6.53419793e-02 6.44518808e-02 1.29473120e-01 2.42080286e-01 6.30101413e-02 6.10199869e-02 1.23441480e-01 1.27008513e-01 3.04271162e-01 3.13001484e-01 2.49848530e-01 1.18493646e-01 2.92259157e-01 2.77710915e-01 2.31545866e-01 4.54970986e-01 6.00279391e-01 5.70574462e-01 5.45558929e-01 4.05679822e-01 5.35380423e-01 4.95031536e-01 4.82276171e-01 5.16402483e-01 3.74880552e-01 3.96103024e-01 4.32404727e-01 5.82983233e-02 2.19089031e-01 5.51133044e-02 1.12548389e-01 3.50051463e-01 4.43507016e-01 3.21853936e-01 3.75050187e-01 5.13985194e-02 1.87994838e-01 4.71897461e-02 9.74806473e-02 2.40769058e-01 1.05521820e-01 2.60493040e-01 2.04525396e-01 7.22535908e-01 8.17020357e-01 7.76700616e-01 7.76701450e-01 8.80096495e-01 9.09339190e-01 8.64542484e-01 8.89566123e-01 7.85260975e-01 8.11426044e-01 7.50493586e-01 7.86816776e-01 8.42245936e-01 8.04238200e-01 8.49461854e-01 8.36704612e-01 6.74082935e-01 7.35312104e-01 6.38118386e-01 6.86837435e-01 7.51271665e-01 7.23807931e-01 6.91068172e-01 7.26253450e-01 5.96011400e-01 6.31759882e-01 5.48164666e-01 5.96015692e-01 6.74092233e-01 6.44530118e-01 7.28906691e-01 6.86843812e-01 9.03623343e-01 8.63163829e-01 8.20713341e-01 8.66950989e-01 7.89503515e-01 6.85460210e-01 6.51859164e-01 7.12258160e-01 7.04711974e-01 6.11961782e-01 5.66153944e-01 6.30279481e-01 6.74524128e-01 7.62373805e-01 8.05090904e-01 7.50723481e-01 8.95472407e-01 8.20905626e-01 8.47874224e-01 8.59143674e-01 7.12312162e-01 5.79954326e-01 6.55385613e-01 6.51906490e-01 7.92112887e-01 7.05617487e-01 7.28720725e-01 7.45880902e-01 7.12592363e-01 8.06396127e-01 7.70363748e-01 7.66956031e-01 5.55047333e-01 4.03304040e-01 3.83681327e-01 4.49022084e-01 2.36084193e-01 5.98135367e-02 5.69705442e-02 1.17416203e-01 2.11042225e-01 5.35669327e-02 4.96382602e-02 1.04115508e-01 1.11314468e-01 2.73630619e-01 2.88768798e-01 2.24667951e-01 5.92022419e-01 4.25370216e-01 5.60731709e-01 5.27922630e-01 2.55808860e-01 9.59011242e-02 2.35499427e-01 1.95354655e-01 5.24008036e-01 3.65922779e-01 4.82218921e-01 4.58625317e-01 3.33436221e-01 4.95675176e-01 3.60311329e-01 3.97573531e-01 8.85043964e-02 2.18732640e-01 1.94614485e-01 1.69662505e-01 3.40814531e-01 4.49918807e-01 4.00490463e-01 4.00474191e-01 2.62990683e-01 3.47263783e-01 2.90819764e-01 3.03448021e-01 3.53616238e-01 2.56520927e-01 2.90566772e-01 3.03321540e-01 4.25294377e-02 1.49729803e-01 3.74703072e-02 7.86894485e-02 2.20124900e-01 2.50526935e-01 1.81824267e-01 2.20309719e-01 3.20831165e-02 1.06137350e-01 2.64477432e-02 5.70768304e-02 1.41353011e-01 6.81615621e-02 1.68704733e-01 1.28458098e-01 5.41762173e-01 6.12784564e-01 5.45576692e-01 5.70591867e-01 6.60249293e-01 6.82330549e-01 6.07593179e-01 6.53825581e-01 5.09857535e-01 5.27001202e-01 4.41330940e-01 4.95697170e-01 5.77543676e-01 5.51334500e-01 6.24207318e-01 5.87884486e-01 4.95042473e-01 5.03934503e-01 4.37170357e-01 4.82299089e-01 4.73154545e-01 4.09074903e-01 3.90422821e-01 4.26921606e-01 3.75140399e-01 3.56815040e-01 3.09586406e-01 3.50170732e-01 3.96128953e-01 4.18219417e-01 4.73122627e-01 4.32442397e-01 6.78179383e-01 6.47954881e-01 5.77073991e-01 6.37480199e-01 5.92818022e-01 5.14886081e-01 4.58656073e-01 5.24038851e-01 4.58128154e-01 3.98006320e-01 3.33520085e-01 3.97645801e-01 4.63073581e-01 5.23195863e-01 5.92143595e-01 5.28017163e-01 6.58307433e-01 5.63200295e-01 5.81550956e-01 6.03943288e-01 4.49206114e-01 3.28384250e-01 3.70885968e-01 3.83823305e-01 4.99190122e-01 3.99124831e-01 4.12018120e-01 4.38782036e-01 4.19364989e-01 5.23887277e-01 5.00632167e-01 4.83492821e-01 4.17147636e-01 3.03337574e-01 2.70314038e-01 3.30739737e-01 1.77775860e-01 4.52285036e-02 4.03823629e-02 8.67592916e-02 1.37661517e-01 3.51470076e-02 2.95727067e-02 6.60623983e-02 7.67808557e-02 1.88277021e-01 2.12914526e-01 1.58482343e-01 4.35778767e-01 2.92368799e-01 3.85138929e-01 3.71648878e-01 1.61825076e-01 5.47064170e-02 1.33812025e-01 1.15513347e-01 3.30787599e-01 2.07569391e-01 2.73246646e-01 2.70379096e-01 1.96794584e-01 3.22568744e-01 2.34685585e-01 2.51180321e-01 2.35420372e-02 9.16901901e-02 1.75434984e-02 4.25647907e-02 1.56252831e-01 2.14714602e-01 1.15276687e-01 1.61293566e-01 1.13051059e-02 4.30638716e-02 4.88485908e-03 1.77912414e-02 7.39170760e-02 3.03953420e-02 1.03994653e-01 6.78200126e-02 4.88087488e-03 4.28655408e-02 1.11565599e-02 1.76581070e-02 1.14357859e-01 2.12256104e-01 1.50201052e-01 1.58098280e-01 1.69370286e-02 8.65659565e-02 2.20141634e-02 4.03361246e-02 9.97744426e-02 2.96237748e-02 7.29288980e-02 6.60741925e-02 2.78804421e-01 3.15336883e-01 2.31517851e-01 2.77768850e-01 3.39877158e-01 3.51408988e-01 2.58110046e-01 3.18514109e-01 1.56915411e-01 1.62361786e-01 6.51300475e-02 1.29188016e-01 2.24902987e-01 2.14544669e-01 3.03936958e-01 2.49571741e-01 2.41098136e-01 1.96052060e-01 1.70236543e-01 2.04743728e-01 1.23165563e-01 3.23340036e-02 3.07434015e-02 6.28684610e-02 9.76947770e-02 2.80005522e-02 2.42386665e-02 5.14459349e-02 5.82302250e-02 1.28688663e-01 1.45512238e-01 1.12502471e-01 3.49447519e-01 3.34053993e-01 2.45518312e-01 3.10908347e-01 3.05815697e-01 2.65814543e-01 1.95527568e-01 2.55950719e-01 1.41675919e-01 1.23295717e-01 4.97489125e-02 1.04282156e-01 1.81024760e-01 2.04287827e-01 2.88986742e-01 2.24847957e-01 3.20876181e-01 2.19692811e-01 2.26650983e-01 2.56747723e-01 1.17581137e-01 2.64107659e-02 2.96727177e-02 5.70601635e-02 1.30273357e-01 3.17929760e-02 3.26908752e-02 6.48991838e-02 6.21752515e-02 1.61587507e-01 1.54604465e-01 1.26356423e-01 2.15577736e-01 1.57000959e-01 1.15667887e-01 1.61947951e-01 9.22472626e-02 2.37121135e-02 1.76174864e-02 4.28187549e-02 4.31697518e-02 1.13338185e-02 4.89488803e-03 1.78322438e-02 3.05003971e-02 7.41458759e-02 1.04500547e-01 6.80715442e-02 2.13063091e-01 1.14725694e-01 1.50791183e-01 1.58673912e-01 4.29671630e-02 4.89078742e-03 1.11819254e-02 1.76962689e-02 8.69657844e-02 1.69939119e-02 2.21311841e-02 4.05184291e-02 2.97089759e-02 1.00161873e-01 7.31335059e-02 6.62801340e-02 1.30815804e-01 3.22188288e-01 5.01195550e-01 6.60950124e-01 6.44382313e-02 6.53375387e-02 6.09244704e-02 6.29721880e-02 7.95306146e-01 8.99098277e-01 9.68337059e-01 1.00036144e+00 9.93940353e-01 9.49319184e-01 8.68209541e-01 7.53725648e-01 6.60972774e-01 5.01210630e-01 3.22197378e-01 1.30820096e-01 6.53419793e-02 6.44518808e-02 6.30101413e-02 6.10199869e-02 5.51133044e-02 5.82983233e-02 4.71897461e-02 5.13985194e-02 5.98135367e-02 5.69705442e-02 5.35669327e-02 4.96382602e-02 3.74703072e-02 4.25294377e-02 2.64477432e-02 3.20831165e-02 4.52285036e-02 4.03823629e-02 3.51470076e-02 2.95727067e-02 1.75434984e-02 2.35420372e-02 4.88485908e-03 1.13051059e-02 1.11565599e-02 4.88087488e-03 2.20141634e-02 1.69370286e-02 3.23340036e-02 3.07434015e-02 2.80005522e-02 2.42386665e-02 2.64107659e-02 2.96727177e-02 3.17929760e-02 3.26908752e-02 2.37121135e-02 1.76174864e-02 1.13338185e-02 4.89488803e-03 4.89078742e-03 1.11819254e-02 1.69939119e-02 2.21311841e-02 
POINT_DATA 289
FIELD FieldData 2
Velocity 3 289 float