# vtk DataFile Version 2.0
./pics/TrueSolution_1_2.vtk, Created by Freefem++ 
ASCII
DATASET UNSTRUCTURED_GRID
POINTS 289 float
0 0 0
0.25 0 0
0.5 0 0
0.75 0 0
1 0 0
0 0.25 0
0.25 0.25 0
0.5 0.25 0
0.75 0.25 0
1 0.25 0
0 0.5 0
0.25 0.5 0
0.5 0.5 0
0.75 0.5 0
1 0.5 0
0 0.75 0
0.25 0.75 0
0.5 0.75 0
0.75 0.75 0
1 0.75 0
0 1 0
0.25 1 0
0.5 1 0
0.75 1 0
1 1 0
0.25 0.125 0
0.125 0 0
0 0.125 0
0.125 0.125 0
0.5 0.125 0
0.375 0 0
0.375 0.125 0
0.75 0.125 0
0.625 0 0
0.625 0.125 0
0.875 0.125 0
0.875 0 0
1 0.125 0
0.25 0.375 0
0.125 0.25 0
0 0.375 0
0.125 0.375 0
0.5 0.375 0
0.375 0.25 0
0.375 0.375 0
0.75 0.375 0
0.625 0.25 0
0.625 0.375 0
1 0.375 0
0.875 0.25 0
0.875 0.375 0
0.25 0.625 0
0.125 0.5 0
0 0.625 0
0.125 0.625 0
0.5 0.625 0
0.375 0.5 0
0.375 0.625 0
0.75 0.625 0
0.625 0.5 0
0.625 0.625 0
1 0.625 0
0.875 0.5 0
0.875 0.625 0
0.125 0.875 0
0 0.875 0
0.125 0.75 0
0.25 0.875 0
0.125 1 0
0.5 0.875 0
0.375 0.75 0
0.375 1 0
0.375 0.875 0
0.75 0.875 0
0.625 0.75 0
0.625 1 0
0.625 0.875 0
1 0.875 0
0.875 0.75 0
0.875 1 0
0.875 0.875 0
0.125 0.0625 0
0.0625 0 0
0.25 0.0625 0
0.1875 0.0625 0
0.1875 0 0
0.1875 0.1875 0
0.1875 0.125 0
0 0.0625 0
0.0625 0.0625 0
0.1875 0.25 0
0 0.1875 0
0.0625 0.1875 0
0.0625 0.125 0
0.125 0.1875 0
0.375 0.0625 0
0.3125 0 0
0.5 0.0625 0
0.4375 0.0625 0
0.4375 0 0
0.4375 0.1875 0
0.4375 0.125 0
0.3125 0.0625 0
0.4375 0.25 0
0.25 0.1875 0
0.3125 0.1875 0
0.3125 0.125 0
0.375 0.1875 0
0.625 0.0625 0
0.5625 0 0
0.75 0.0625 0
0.6875 0.0625 0
0.6875 0 0
0.6875 0.1875 0
0.6875 0.125 0
0.5625 0.0625 0
0.6875 0.25 0
0.5 0.1875 0
0.5625 0.1875 0
0.5625 0.125 0
0.625 0.1875 0
0.8125 0 0
0.9375 0.0625 0
0.875 0.0625 0
0.9375 0 0
0.75 0.1875 0
0.8125 0.125 0
0.8125 0.0625 0
0.875 0.1875 0
0.8125 0.1875 0
1 0.0625 0
1 0.1875 0
0.9375 0.25 0
0.9375 0.125 0
0.9375 0.1875 0
0.125 0.3125 0
0.0625 0.25 0
0.25 0.3125 0
0.1875 0.3125 0
0.1875 0.4375 0
0.1875 0.375 0
0 0.3125 0
0.0625 0.3125 0
0.1875 0.5 0
0 0.4375 0
0.0625 0.4375 0
0.0625 0.375 0
0.125 0.4375 0
0.375 0.3125 0
0.3125 0.25 0
0.5 0.3125 0
0.4375 0.3125 0
0.4375 0.4375 0
0.4375 0.375 0
0.3125 0.3125 0
0.4375 0.5 0
0.25 0.4375 0
0.3125 0.4375 0
0.3125 0.375 0
0.375 0.4375 0
0.625 0.3125 0
0.5625 0.25 0
0.75 0.3125 0
0.6875 0.3125 0
0.6875 0.4375 0
0.6875 0.375 0
0.5625 0.3125 0
0.6875 0.5 0
0.5 0.4375 0
0.5625 0.4375 0
0.5625 0.375 0
0.625 0.4375 0
0.875 0.3125 0
0.8125 0.25 0
1 0.3125 0
0.9375 0.3125 0
1 0.4375 0
0.9375 0.4375 0
0.9375 0.375 0
0.8125 0.3125 0
0.9375 0.5 0
0.75 0.4375 0
0.8125 0.4375 0
0.8125 0.375 0
0.875 0.4375 0
0.125 0.5625 0
0.0625 0.5 0
0.25 0.5625 0
0.1875 0.5625 0
0.1875 0.6875 0
0.1875 0.625 0
0 0.5625 0
0.0625 0.5625 0
0.1875 0.75 0
0 0.6875 0
0.0625 0.6875 0
0.0625 0.625 0
0.125 0.6875 0
0.375 0.5625 0
0.3125 0.5 0
0.5 0.5625 0
0.4375 0.5625 0
0.4375 0.6875 0
0.4375 0.625 0
0.3125 0.5625 0
0.4375 0.75 0
0.25 0.6875 0
0.3125 0.6875 0
0.3125 0.625 0
0.375 0.6875 0
0.625 0.5625 0
0.5625 0.5 0
0.75 0.5625 0
0.6875 0.5625 0
0.6875 0.6875 0
0.6875 0.625 0
0.5625 0.5625 0
0.6875 0.75 0
0.5 0.6875 0
0.5625 0.6875 0
0.5625 0.625 0
0.625 0.6875 0
0.875 0.5625 0
0.8125 0.5 0
1 0.5625 0
0.9375 0.5625 0
1 0.6875 0
0.9375 0.6875 0
0.9375 0.625 0
0.8125 0.5625 0
0.9375 0.75 0
0.75 0.6875 0
0.8125 0.6875 0
0.8125 0.625 0
0.875 0.6875 0
0 0.8125 0
0.0625 0.75 0
0.1875 0.8125 0
0.125 0.8125 0
0 0.9375 0
0.0625 0.8125 0
0.0625 0.875 0
0.125 0.9375 0
0.0625 1 0
0.0625 0.9375 0
0.25 0.8125 0
0.1875 1 0
0.1875 0.875 0
0.1875 0.9375 0
0.375 0.8125 0
0.3125 0.75 0
0.5 0.8125 0
0.4375 0.8125 0
0.4375 0.9375 0
0.4375 0.875 0
0.3125 0.8125 0
0.4375 1 0
0.375 0.9375 0
0.3125 1 0
0.25 0.9375 0
0.3125 0.9375 0
0.3125 0.875 0
0.625 0.8125 0
0.5625 0.75 0
0.75 0.8125 0
0.6875 0.8125 0
0.6875 0.9375 0
0.6875 0.875 0
0.5625 0.8125 0
0.6875 1 0
0.625 0.9375 0
0.5625 1 0
0.5 0.9375 0
0.5625 0.9375 0
0.5625 0.875 0
0.875 0.8125 0
0.8125 0.75 0
1 0.8125 0
0.9375 0.8125 0
1 0.9375 0
0.9375 0.9375 0
0.9375 0.875 0
0.8125 0.8125 0
0.9375 1 0
0.875 0.9375 0
0.8125 1 0
0.75 0.9375 0
0.8125 0.9375 0
0.8125 0.875 0

CELLS 576 2240
3 0 82 89
3 82 26 81
3 89 81 28
3 81 89 82
3 26 85 84
3 85 1 83
3 84 83 25
3 83 84 85
3 28 87 86
3 87 25 104
3 86 104 6
3 104 86 87
3 25 87 84
3 87 28 81
3 84 81 26
3 81 84 87
3 0 89 88
3 89 28 93
3 88 93 27
3 93 88 89
3 28 86 94
3 86 6 90
3 94 90 39
3 90 94 86
3 27 92 91
3 92 39 136
3 91 136 5
3 136 91 92
3 39 92 94
3 92 27 93
3 94 93 28
3 93 94 92
3 1 96 102
3 96 30 95
3 102 95 31
3 95 102 96
3 30 99 98
3 99 2 97
3 98 97 29
3 97 98 99
3 31 101 100
3 101 29 117
3 100 117 7
3 117 100 101
3 29 101 98
3 101 31 95
3 98 95 30
3 95 98 101
3 1 102 83
3 102 31 106
3 83 106 25
3 106 83 102
3 31 100 107
3 100 7 103
3 107 103 43
3 103 107 100
3 25 105 104
3 105 43 149
3 104 149 6
3 149 104 105
3 43 105 107
3 105 25 106
3 107 106 31
3 106 107 105
3 2 109 115
3 109 33 108
3 115 108 34
3 108 115 109
3 33 112 111
3 112 3 110
3 111 110 32
3 110 111 112
3 34 114 113
3 114 32 125
3 113 125 8
3 125 113 114
3 32 114 111
3 114 34 108
3 111 108 33
3 108 111 114
3 2 115 97
3 115 34 119
3 97 119 29
3 119 97 115
3 34 113 120
3 113 8 116
3 120 116 46
3 116 120 113
3 29 118 117
3 118 46 161
3 117 161 7
3 161 117 118
3 46 118 120
3 118 29 119
3 120 119 34
3 119 120 118
3 3 121 110
3 121 36 127
3 110 127 32
3 127 110 121
3 36 124 123
3 124 4 122
3 123 122 35
3 122 123 124
3 32 126 125
3 126 35 129
3 125 129 8
3 129 125 126
3 35 126 123
3 126 32 127
3 123 127 36
3 127 123 126
3 8 129 173
3 129 35 128
3 173 128 49
3 128 173 129
3 35 122 133
3 122 4 130
3 133 130 37
3 130 133 122
3 49 134 132
3 134 37 131
3 132 131 9
3 131 132 134
3 37 134 133
3 134 49 128
3 133 128 35
3 128 133 134
3 5 136 142
3 136 39 135
3 142 135 41
3 135 142 136
3 39 90 138
3 90 6 137
3 138 137 38
3 137 138 90
3 41 140 139
3 140 38 156
3 139 156 11
3 156 139 140
3 38 140 138
3 140 41 135
3 138 135 39
3 135 138 140
3 5 142 141
3 142 41 146
3 141 146 40
3 146 141 142
3 41 139 147
3 139 11 143
3 147 143 52
3 143 147 139
3 40 145 144
3 145 52 186
3 144 186 10
3 186 144 145
3 52 145 147
3 145 40 146
3 147 146 41
3 146 147 145
3 6 149 154
3 149 43 148
3 154 148 44
3 148 154 149
3 43 103 151
3 103 7 150
3 151 150 42
3 150 151 103
3 44 153 152
3 153 42 168
3 152 168 12
3 168 152 153
3 42 153 151
3 153 44 148
3 151 148 43
3 148 151 153
3 6 154 137
3 154 44 158
3 137 158 38
3 158 137 154
3 44 152 159
3 152 12 155
3 159 155 56
3 155 159 152
3 38 157 156
3 157 56 199
3 156 199 11
3 199 156 157
3 56 157 159
3 157 38 158
3 159 158 44
3 158 159 157
3 7 161 166
3 161 46 160
3 166 160 47
3 160 166 161
3 46 116 163
3 116 8 162
3 163 162 45
3 162 163 116
3 47 165 164
3 165 45 181
3 164 181 13
3 181 164 165
3 45 165 163
3 165 47 160
3 163 160 46
3 160 163 165
3 7 166 150
3 166 47 170
3 150 170 42
3 170 150 166
3 47 164 171
3 164 13 167
3 171 167 59
3 167 171 164
3 42 169 168
3 169 59 211
3 168 211 12
3 211 168 169
3 59 169 171
3 169 42 170
3 171 170 47
3 170 171 169
3 8 173 179
3 173 49 172
3 179 172 50
3 172 179 173
3 49 132 175
3 132 9 174
3 175 174 48
3 174 175 132
3 50 178 177
3 178 48 176
3 177 176 14
3 176 177 178
3 48 178 175
3 178 50 172
3 175 172 49
3 172 175 178
3 8 179 162
3 179 50 183
3 162 183 45
3 183 162 179
3 50 177 184
3 177 14 180
3 184 180 62
3 180 184 177
3 45 182 181
3 182 62 223
3 181 223 13
3 223 181 182
3 62 182 184
3 182 45 183
3 184 183 50
3 183 184 182
3 10 186 192
3 186 52 185
3 192 185 54
3 185 192 186
3 52 143 188
3 143 11 187
3 188 187 51
3 187 188 143
3 54 190 189
3 190 51 206
3 189 206 16
3 206 189 190
3 51 190 188
3 190 54 185
3 188 185 52
3 185 188 190
3 10 192 191
3 192 54 196
3 191 196 53
3 196 191 192
3 54 189 197
3 189 16 193
3 197 193 66
3 193 197 189
3 53 195 194
3 195 66 236
3 194 236 15
3 236 194 195
3 66 195 197
3 195 53 196
3 197 196 54
3 196 197 195
3 11 199 204
3 199 56 198
3 204 198 57
3 198 204 199
3 56 155 201
3 155 12 200
3 201 200 55
3 200 201 155
3 57 203 202
3 203 55 218
3 202 218 17
3 218 202 203
3 55 203 201
3 203 57 198
3 201 198 56
3 198 201 203
3 11 204 187
3 204 57 208
3 187 208 51
3 208 187 204
3 57 202 209
3 202 17 205
3 209 205 70
3 205 209 202
3 51 207 206
3 207 70 250
3 206 250 16
3 250 206 207
3 70 207 209
3 207 51 208
3 209 208 57
3 208 209 207
3 12 211 216
3 211 59 210
3 216 210 60
3 210 216 211
3 59 167 213
3 167 13 212
3 213 212 58
3 212 213 167
3 60 215 214
3 215 58 231
3 214 231 18
3 231 214 215
3 58 215 213
3 215 60 210
3 213 210 59
3 210 213 215
3 12 216 200
3 216 60 220
3 200 220 55
3 220 200 216
3 60 214 221
3 214 18 217
3 221 217 74
3 217 221 214
3 55 219 218
3 219 74 263
3 218 263 17
3 263 218 219
3 74 219 221
3 219 55 220
3 221 220 60
3 220 221 219
3 13 223 229
3 223 62 222
3 229 222 63
3 222 229 223
3 62 180 225
3 180 14 224
3 225 224 61
3 224 225 180
3 63 228 227
3 228 61 226
3 227 226 19
3 226 227 228
3 61 228 225
3 228 63 222
3 225 222 62
3 222 225 228
3 13 229 212
3 229 63 233
3 212 233 58
3 233 212 229
3 63 227 234
3 227 19 230
3 234 230 78
3 230 234 227
3 58 232 231
3 232 78 276
3 231 276 18
3 276 231 232
3 78 232 234
3 232 58 233
3 234 233 63
3 233 234 232
3 15 236 235
3 236 66 240
3 235 240 65
3 240 235 236
3 66 193 238
3 193 16 237
3 238 237 64
3 237 238 193
3 65 241 239
3 241 64 244
3 239 244 20
3 244 239 241
3 64 241 238
3 241 65 240
3 238 240 66
3 240 238 241
3 20 244 243
3 244 64 242
3 243 242 68
3 242 243 244
3 64 237 247
3 237 16 245
3 247 245 67
3 245 247 237
3 68 248 246
3 248 67 259
3 246 259 21
3 259 246 248
3 67 248 247
3 248 68 242
3 247 242 64
3 242 247 248
3 16 250 255
3 250 70 249
3 255 249 72
3 249 255 250
3 70 205 252
3 205 17 251
3 252 251 69
3 251 252 205
3 72 254 253
3 254 69 272
3 253 272 22
3 272 253 254
3 69 254 252
3 254 72 249
3 252 249 70
3 249 252 254
3 16 255 245
3 255 72 261
3 245 261 67
3 261 245 255
3 72 253 257
3 253 22 256
3 257 256 71
3 256 257 253
3 67 260 259
3 260 71 258
3 259 258 21
3 258 259 260
3 71 260 257
3 260 67 261
3 257 261 72
3 261 257 260
3 17 263 268
3 263 74 262
3 268 262 76
3 262 268 263
3 74 217 265
3 217 18 264
3 265 264 73
3 264 265 217
3 76 267 266
3 267 73 286
3 266 286 23
3 286 266 267
3 73 267 265
3 267 76 262
3 265 262 74
3 262 265 267
3 17 268 251
3 268 76 274
3 251 274 69
3 274 251 268
3 76 266 270
3 266 23 269
3 270 269 75
3 269 270 266
3 69 273 272
3 273 75 271
3 272 271 22
3 271 272 273
3 75 273 270
3 273 69 274
3 270 274 76
3 274 270 273
3 18 276 282
3 276 78 275
3 282 275 80
3 275 282 276
3 78 230 278
3 230 19 277
3 278 277 77
3 277 278 230
3 80 281 280
3 281 77 279
3 280 279 24
3 279 280 281
3 77 281 278
3 281 80 275
3 278 275 78
3 275 278 281
3 18 282 264
3 282 80 288
3 264 288 73
3 288 264 282
3 80 280 284
3 280 24 283
3 284 283 79
3 283 284 280
3 73 287 286
3 287 79 285
3 286 285 23
3 285 286 287
3 79 287 284
3 287 73 288
3 284 288 80
3 288 284 287
2 0 82
2 82 26
2 26 85
2 85 1
2 27 88
2 88 0
2 5 91
2 91 27
2 1 96
2 96 30
2 30 99
2 99 2
2 2 109
2 109 33
2 33 112
2 112 3
2 3 121
2 121 36
2 36 124
2 124 4
2 4 130
2 130 37
2 37 131
2 131 9
2 40 141
2 141 5
2 10 144
2 144 40
2 9 174
2 174 48
2 48 176
2 176 14
2 53 191
2 191 10
2 15 194
2 194 53
2 14 224
2 224 61
2 61 226
2 226 19
2 65 235
2 235 15
2 20 239
2 239 65
2 68 243
2 243 20
2 21 246
2 246 68
2 22 256
2 256 71
2 71 258
2 258 21
2 23 269
2 269 75
2 75 271
2 271 22
2 19 277
2 277 77
2 77 279
2 279 24
2 24 283
2 283 79
2 79 285
2 285 23

CELL_TYPES 576
5 5 5 5 5 5 5 5 5 5 5 5 5 5 5 5 5 5 5 5 5 5 5 5 5 5 5 5 5 5 5 5 5 5 5 5 5 5 5 5 5 5 5 5 5 5 5 5 5 5 5 5 5 5 5 5 5 5 5 5 5 5 5 5 5 5 5 5 5 5 5 5 5 5 5 5 5 5 5 5 5 5 5 5 5 5 5 5 5 5 5 5 5 5 5 5 5 5 5 5 5 5 5 5 5 5 5 5 5 5 5 5 5 5 5 5 5 5 5 5 5 5 5 5 5 5 5 5 5 5 5 5 5 5 5 5 5 5 5 5 5 5 5 5 5 5 5 5 5 5 5 5 5 5 5 5 5 5 5 5 5 5 5 5 5 5 5 5 5 5 5 5 5 5 5 5 5 5 5 5 5 5 5 5 5 5 5 5 5 5 5 5 5 5 5 5 5 5 5 5 5 5 5 5 5 5 5 5 5 5 5 5 5 5 5 5 5 5 5 5 5 5 5 5 5 5 5 5 5 5 5 5 5 5 5 5 5 5 5 5 5 5 5 5 5 5 5 5 5 5 5 5 5 5 5 5 5 5 5 5 5 5 5 5 5 5 5 5 5 5 5 5 5 5 5 5 5 5 5 5 5 5 5 5 5 5 5 5 5 5 5 5 5 5 5 5 5 5 5 5 5 5 5 5 5 5 5 5 5 5 5 5 5 5 5 5 5 5 5 5 5 5 5 5 5 5 5 5 5 5 5 5 5 5 5 5 5 5 5 5 5 5 5 5 5 5 5 5 5 5 5 5 5 5 5 5 5 5 5 5 5 5 5 5 5 5 5 5 5 5 5 5 5 5 5 5 5 5 5 5 5 5 5 5 5 5 5 5 5 5 5 5 5 5 5 5 5 5 5 5 5 5 5 5 5 5 5 5 5 5 5 5 5 5 5 5 5 5 5 5 5 5 5 5 5 5 5 5 5 5 5 5 5 5 5 5 5 5 5 5 5 5 5 5 5 5 5 5 5 5 5 5 5 5 5 5 5 5 5 5 5 5 5 5 5 5 5 5 5 5 5 5 5 5 5 5 5 5 5 5 5 5 5 5 5 5 5 5 5 5 5 5 5 5 5 5 5 5 5 5 5 5 5 5 5 5 5 5 5 5 5 5 3 3 3 3 3 3 3 3 3 3 3 3 3 3 3 3 3 3 3 3 3 3 3 3 3 3 3 3 3 3 3 3 3 3 3 3 3 3 3 3 3 3 3 3 3 3 3 3 3 3 3 3 3 3 3 3 3 3 3 3 3 3 3 3 
CELL_DATA 576
Scalars  Label int 1
LOOKUP_TABLE FreeFempp_table
0
0
0
0
0
0
0
0
0
0
0
0
0
0
0
0
0
0
0
0
0
0
0
0
0
0
0
0
0
0
0
0
0
0
0
0
0
0
0
0
0
0
0
0
0
0
0
0
0
0
0
0
0
0
0
0
0
0
0
0
0
0
0
0
0
0
0
0
0
0
0
0
0
0
0
0
0
0
0
0
0
0
0
0
0
0
0
0
0
0
0
0
0
0
0
0
0
0
0
0
0
0
0
0
0
0
0
0
0
0
0
0
0
0
0
0
0
0
0
0
0
0
0
0
0
0
0
0
0
0
0
0
0
0
0
0
0
0
0
0
0
0
0
0
0
0
0
0
0
0
0
0
0
0
0
0
0
0
0
0
0
0
0
0
0
0
0
0
0
0
0
0
0
0
0
0
0
0
0
0
0
0
0
0
0
0
0
0
0
0
0
0
0
0
0
0
0
0
0
0
0
0
0
0
0
0
0
0
0
0
0
0
0
0
0
0
0
0
0
0
0
0
0
0
0
0
0
0
0
0
0
0
0
0
0
0
0
0
0
0
0
0
0
0
0
0
0
0
0
0
0
0
0
0
0
0
0
0
0
0
0
0
0
0
0
0
0
0
0
0
0
0
0
0
0
0
0
0
0
0
0
0
0
0
0
0
0
0
0
0
0
0
0
0
0
0
0
0
0
0
0
0
0
0
0
0
0
0
0
0
0
0
0
0
0
0
0
0
0
0
0
0
0
0
0
0
0
0
0
0
0
0
0
0
0
0
0
0
0
0
0
0
0
0
0
0
0
0
0
0
0
0
0
0
0
0
0
0
0
0
0
0
0
0
0
0
0
0
0
0
0
0
0
0
0
0
0
0
0
0
0
0
0
0
0
0
0
0
0
0
0
0
0
0
0
0
0
0
0
0
0
0
0
0
0
0
0
0
0
0
0
0
0
0
0
0
0
0
0
0
0
0
0
0
0
0
0
0
0
0
0
0
0
0
0
0
0
0
0
0
0
0
0
0
0
0
0
0
0
0
0
0
0
0
0
0
0
0
0
0
0
0
0
0
0
0
0
0
0
0
0
0
0
0
0
0
0
0
0
0
0
0
0
0
0
0
0
0
0
0
0
0
0
0
0
0
0
0
0
0
0
0
0
0
0
0
0
0
0
0
0
0
1
1
1
1
4
4
4
4
1
1
1
1
1
1
1
1
1
1
1
1
2
2
2
2
4
4
4
4
2
2
2
2
4
4
4
4
2
2
2
2
4
4
4
4
3
3
3
3
3
3
3
3
3
3
3
3
2
2
2
2
3
3
3
3

LOOKUP_TABLE FreeFempp_table 5
1.00000000 0.00000000 0.00000000 1.00000000
1.00000000 1.00000000 0.00000000 1.00000000
1.00000000 0.00000000 1.00000000 1.00000000
0.00000000 1.00000000 0.00000000 1.00000000
0.00000000 1.00000000 1.00000000 1.00000000

FIELD FieldData 1
Pressure 1 576 float
1.30717486e-01 3.21910530e-01 3.19327533e-01 2.58781940e-01 5.00732780e-01 6.60312116e-01 6.55013740e-01 6.08674169e-01 4.87913340e-01 6.43407226e-01 6.25604391e-01 5.89195609e-01 6.01832867e-01 4.37254816e-01 4.42225277e-01 4.96714860e-01 6.53937533e-02 2.55873322e-01 6.46587461e-02 1.29668593e-01 4.28073347e-01 5.70884049e-01 4.14769322e-01 4.74412948e-01 6.33010492e-02 2.42715225e-01 6.13337196e-02 1.23846628e-01 3.04990083e-01 1.27370939e-01 3.13669205e-01 2.50500500e-01 7.94516027e-01 8.98187101e-01 8.90980065e-01 8.65901232e-01 9.67341423e-01 9.99321282e-01 9.91302729e-01 9.91302729e-01 9.42576170e-01 9.73737359e-01 9.46794391e-01 9.59579408e-01 9.80160832e-01 9.36152756e-01 9.46794391e-01 9.59579408e-01 7.51732051e-01 8.56168807e-01 7.43282795e-01 7.88140774e-01 9.16495442e-01 9.29756761e-01 8.88011754e-01 9.16495442e-01 7.27675378e-01 8.12140942e-01 7.05060065e-01 7.52754211e-01 8.50976050e-01 7.74175346e-01 8.75192344e-01 8.38191032e-01 9.92897868e-01 9.48317885e-01 9.40708578e-01 9.65787351e-01 8.67294550e-01 7.52941668e-01 7.46900022e-01 7.93239594e-01 8.45090687e-01 7.33665347e-01 7.13365078e-01 7.67854631e-01 7.84323871e-01 8.86665046e-01 8.96744192e-01 8.60335410e-01 9.97715890e-01 9.54932213e-01 9.86501873e-01 9.84930813e-01 8.68046880e-01 7.43990600e-01 8.41068983e-01 8.21707308e-01 9.65787351e-01 9.05825555e-01 9.35771763e-01 9.40708578e-01 8.98471832e-01 9.67478335e-01 9.24039662e-01 9.34880614e-01 6.60312116e-01 5.00732780e-01 6.55013740e-01 6.08674169e-01 3.21910530e-01 1.30717486e-01 3.19327533e-01 2.58781940e-01 6.43407226e-01 4.87913340e-01 6.25604391e-01 5.89195609e-01 4.37254816e-01 6.01832867e-01 4.42225277e-01 4.96714860e-01 5.70884049e-01 4.28073347e-01 4.14769322e-01 4.74412948e-01 2.55873322e-01 6.53937533e-02 6.46587461e-02 1.29668593e-01 2.42715225e-01 6.33010492e-02 6.13337196e-02 1.23846628e-01 1.27370939e-01 3.04990083e-01 3.13669205e-01 2.50500500e-01 1.19129606e-01 2.93373734e-01 2.78932035e-01 2.32592463e-01 4.56343681e-01 6.01776600e-01 5.72153389e-01 5.47074616e-01 4.07236993e-01 5.37020028e-01 4.96714860e-01 4.83929813e-01 5.17996490e-01 3.76344472e-01 3.97470832e-01 4.33879584e-01 5.87757193e-02 2.20229715e-01 5.56516722e-02 1.13265306e-01 3.51593703e-01 4.45202619e-01 3.23456883e-01 3.76672506e-01 5.19916713e-02 1.89280912e-01 4.78309616e-02 9.83312503e-02 2.42154807e-01 1.06310189e-01 2.61804074e-01 2.05746040e-01 7.24083602e-01 8.18564415e-01 7.78269589e-01 7.78269589e-01 8.81588280e-01 9.10733223e-01 8.65901232e-01 8.90980065e-01 7.86721468e-01 8.12730134e-01 7.51732051e-01 7.88140774e-01 8.43622684e-01 8.05745006e-01 8.50976050e-01 8.38191032e-01 6.75654590e-01 7.36903012e-01 6.39742196e-01 6.88439667e-01 7.52754211e-01 7.25068688e-01 6.92513943e-01 7.27675378e-01 5.97668767e-01 6.33346260e-01 5.49839437e-01 5.97668767e-01 6.75654590e-01 6.46165669e-01 7.30479538e-01 6.88439667e-01 9.04879212e-01 8.64251196e-01 8.21707308e-01 8.68046880e-01 7.90410459e-01 6.86194718e-01 6.52415872e-01 7.12961495e-01 7.05355167e-01 6.12353981e-01 5.66394746e-01 6.30669594e-01 6.75066173e-01 7.63151050e-01 8.05991113e-01 7.51501501e-01 8.96744192e-01 8.21908474e-01 8.49080443e-01 8.60335410e-01 7.12961495e-01 5.80199361e-01 6.55905664e-01 6.52415872e-01 7.93239594e-01 7.06405938e-01 7.29759455e-01 7.46900022e-01 7.13365078e-01 8.07506084e-01 7.71249950e-01 7.67854631e-01 5.55608869e-01 4.03671294e-01 3.83800089e-01 4.49334145e-01 2.36220881e-01 5.96926101e-02 5.67541681e-02 1.17299750e-01 2.10801378e-01 5.32691479e-02 4.92711216e-02 1.03760704e-01 1.11065038e-01 2.73513585e-01 2.88867444e-01 2.24592611e-01 5.92533171e-01 4.25451130e-01 5.61038852e-01 5.28258324e-01 2.55525619e-01 9.54570994e-02 2.35076800e-01 1.94980025e-01 5.24141431e-01 3.65662634e-01 4.82196242e-01 4.58607376e-01 3.33195984e-01 4.95820373e-01 3.60232651e-01 3.97470832e-01 8.94053355e-02 2.20173448e-01 1.96071699e-01 1.70992896e-01 3.42480421e-01 4.51626062e-01 4.02187884e-01 4.02187884e-01 2.64562517e-01 3.48876387e-01 2.92205036e-01 3.04990083e-01 3.55299830e-01 2.58139074e-01 2.92205036e-01 3.04990083e-01 4.32096124e-02 1.51058137e-01 3.81721333e-02 7.96183869e-02 2.21587077e-01 2.51743108e-01 1.82901084e-01 2.21587077e-01 3.27670313e-02 1.07030287e-01 2.70463694e-02 5.78458346e-02 1.42453656e-01 6.90646768e-02 1.70081675e-01 1.29668593e-01 5.43415964e-01 6.14322722e-01 5.47074616e-01 5.72153389e-01 6.61621392e-01 6.83494329e-01 6.08674169e-01 6.55013740e-01 5.11095524e-01 5.27992129e-01 4.42225277e-01 4.96714860e-01 5.78650653e-01 5.52669942e-01 6.25604391e-01 5.89195609e-01 4.96714860e-01 5.05450368e-01 4.38806653e-01 4.83929813e-01 4.74412948e-01 4.09995437e-01 3.91587108e-01 4.28073347e-01 3.76672506e-01 3.58130306e-01 3.10910761e-01 3.51593703e-01 3.97470832e-01 4.19783115e-01 4.74557817e-01 4.33879584e-01 6.79100931e-01 6.48610055e-01 5.77608585e-01 6.38154209e-01 5.93193471e-01 5.14980853e-01 4.58607376e-01 5.24141431e-01 4.58235741e-01 3.97817284e-01 3.33195984e-01 3.97470832e-01 4.63035762e-01 5.23454249e-01 5.92533171e-01 5.28258324e-01 6.59251273e-01 5.63756645e-01 5.82394183e-01 6.04761720e-01 4.49334145e-01 3.28078002e-01 3.70886713e-01 3.83800089e-01 4.99928325e-01 3.99442464e-01 4.12647873e-01 4.39382732e-01 4.19654965e-01 5.24598300e-01 5.01044452e-01 4.83929813e-01 4.16977763e-01 3.02950442e-01 2.69787341e-01 3.30332905e-01 1.77280918e-01 4.47985828e-02 3.98946106e-02 8.62341970e-02 1.36947632e-01 3.46064344e-02 2.89849769e-02 6.53937533e-02 7.61808082e-02 1.87606156e-01 2.12364063e-01 1.57874480e-01 4.35607255e-01 2.91821897e-01 3.84823114e-01 3.71332407e-01 1.61041498e-01 5.39769232e-02 1.32925913e-01 1.14701912e-01 3.30332905e-01 2.06766635e-01 2.72661418e-01 2.69787341e-01 1.96010917e-01 3.22110921e-01 2.34026030e-01 2.50500500e-01 2.30843779e-02 9.13515389e-02 1.69614647e-02 4.20402661e-02 1.56108111e-01 2.14865550e-01 1.14701912e-01 1.61041498e-01 1.06752031e-02 4.22448553e-02 4.28613322e-03 1.70711949e-02 7.31374025e-02 2.96987388e-02 1.03530183e-01 6.71214089e-02 4.27924702e-03 4.20402661e-02 1.05382595e-02 1.69614647e-02 1.13765433e-01 2.12364063e-01 1.50021523e-01 1.57874480e-01 1.63922925e-02 8.62341970e-02 2.16163807e-02 3.98946106e-02 9.93630067e-02 2.89849769e-02 7.21910670e-02 6.53937533e-02 2.80018240e-01 3.16555947e-01 2.32592463e-01 2.78932035e-01 3.40928584e-01 3.52199554e-01 2.58781940e-01 3.19327533e-01 1.57659948e-01 1.62872121e-01 6.53937533e-02 1.29668593e-01 2.25584313e-01 2.15455830e-01 3.04990083e-01 2.50500500e-01 2.42154807e-01 1.97047517e-01 1.71066761e-01 2.05746040e-01 1.23846628e-01 3.25041115e-02 3.10447123e-02 6.33010492e-02 9.83312503e-02 2.83922851e-02 2.46487577e-02 5.19916713e-02 5.87757193e-02 1.29492387e-01 1.46388993e-01 1.13265306e-01 3.49935681e-01 3.34223956e-01 2.45574206e-01 3.11108261e-01 3.05668205e-01 2.65365809e-01 1.94980025e-01 2.55525619e-01 1.41354039e-01 1.22716486e-01 4.92711216e-02 1.03760704e-01 1.80512369e-01 2.04066232e-01 2.88867444e-01 2.24592611e-01 3.21393371e-01 2.19777942e-01 2.27043703e-01 2.57118523e-01 1.17299750e-01 2.60097608e-02 2.94036027e-02 5.67541681e-02 1.30507484e-01 3.16674784e-02 3.27143930e-02 6.49734139e-02 6.20561838e-02 1.61825210e-01 1.54559448e-01 1.26331031e-01 2.14865550e-01 1.56108111e-01 1.14701912e-01 1.61041498e-01 9.13515389e-02 2.30843779e-02 1.69614647e-02 4.20402661e-02 4.22448553e-02 1.06752031e-02 4.28613322e-03 1.70711949e-02 2.96987388e-02 7.31374025e-02 1.03530183e-01 6.71214089e-02 2.12364063e-01 1.13765433e-01 1.50021523e-01 1.57874480e-01 4.20402661e-02 4.27924702e-03 1.05382595e-02 1.69614647e-02 8.62341970e-02 1.63922925e-02 2.16163807e-02 3.98946106e-02 2.89849769e-02 9.93630067e-02 7.21910670e-02 6.53937533e-02 1.30717486e-01 3.21910530e-01 5.00732780e-01 6.60312116e-01 6.46587461e-02 6.53937533e-02 6.13337196e-02 6.33010492e-02 7.94516027e-01 8.98187101e-01 9.67341423e-01 9.99321282e-01 9.92897868e-01 9.48317885e-01 8.67294550e-01 7.52941668e-01 6.60312116e-01 5.00732780e-01 3.21910530e-01 1.30717486e-01 6.53937533e-02 6.46587461e-02 6.33010492e-02 6.13337196e-02 5.56516722e-02 5.87757193e-02 4.78309616e-02 5.19916713e-02 5.96926101e-02 5.67541681e-02 5.32691479e-02 4.92711216e-02 3.81721333e-02 4.32096124e-02 2.70463694e-02 3.27670313e-02 4.47985828e-02 3.98946106e-02 3.46064344e-02 2.89849769e-02 1.69614647e-02 2.30843779e-02 4.28613322e-03 1.06752031e-02 1.05382595e-02 4.27924702e-03 2.16163807e-02 1.63922925e-02 3.25041115e-02 3.10447123e-02 2.83922851e-02 2.46487577e-02 2.60097608e-02 2.94036027e-02 3.16674784e-02 3.27143930e-02 2.30843779e-02 1.69614647e-02 1.06752031e-02 4.28613322e-03 4.27924702e-03 1.05382595e-02 1.63922925e-02 2.16163807e-02 
POINT_DATA 289
FIELD FieldData 2
Velocity 3 289 float