# vtk DataFile Version 2.0
./pics/TrueSolution_1_3.vtk, Created by Freefem++ 
ASCII
DATASET UNSTRUCTURED_GRID
POINTS 289 float
0 0 0
0.25 0 0
0.5 0 0
0.75 0 0
1 0 0
0 0.25 0
0.25 0.25 0
0.5 0.25 0
0.75 0.25 0
1 0.25 0
0 0.5 0
0.25 0.5 0
0.5 0.5 0
0.75 0.5 0
1 0.5 0
0 0.75 0
0.25 0.75 0
0.5 0.75 0
0.75 0.75 0
1 0.75 0
0 1 0
0.25 1 0
0.5 1 0
0.75 1 0
1 1 0
0.25 0.125 0
0.125 0 0
0 0.125 0
0.125 0.125 0
0.5 0.125 0
0.375 0 0
0.375 0.125 0
0.75 0.125 0
0.625 0 0
0.625 0.125 0
0.875 0.125 0
0.875 0 0
1 0.125 0
0.25 0.375 0
0.125 0.25 0
0 0.375 0
0.125 0.375 0
0.5 0.375 0
0.375 0.25 0
0.375 0.375 0
0.75 0.375 0
0.625 0.25 0
0.625 0.375 0
1 0.375 0
0.875 0.25 0
0.875 0.375 0
0.25 0.625 0
0.125 0.5 0
0 0.625 0
0.125 0.625 0
0.5 0.625 0
0.375 0.5 0
0.375 0.625 0
0.75 0.625 0
0.625 0.5 0
0.625 0.625 0
1 0.625 0
0.875 0.5 0
0.875 0.625 0
0.125 0.875 0
0 0.875 0
0.125 0.75 0
0.25 0.875 0
0.125 1 0
0.5 0.875 0
0.375 0.75 0
0.375 1 0
0.375 0.875 0
0.75 0.875 0
0.625 0.75 0
0.625 1 0
0.625 0.875 0
1 0.875 0
0.875 0.75 0
0.875 1 0
0.875 0.875 0
0.125 0.0625 0
0.0625 0 0
0.25 0.0625 0
0.1875 0.0625 0
0.1875 0 0
0.1875 0.1875 0
0.1875 0.125 0
0 0.0625 0
0.0625 0.0625 0
0.1875 0.25 0
0 0.1875 0
0.0625 0.1875 0
0.0625 0.125 0
0.125 0.1875 0
0.375 0.0625 0
0.3125 0 0
0.5 0.0625 0
0.4375 0.0625 0
0.4375 0 0
0.4375 0.1875 0
0.4375 0.125 0
0.3125 0.0625 0
0.4375 0.25 0
0.25 0.1875 0
0.3125 0.1875 0
0.3125 0.125 0
0.375 0.1875 0
0.625 0.0625 0
0.5625 0 0
0.75 0.0625 0
0.6875 0.0625 0
0.6875 0 0
0.6875 0.1875 0
0.6875 0.125 0
0.5625 0.0625 0
0.6875 0.25 0
0.5 0.1875 0
0.5625 0.1875 0
0.5625 0.125 0
0.625 0.1875 0
0.8125 0 0
0.9375 0.0625 0
0.875 0.0625 0
0.9375 0 0
0.75 0.1875 0
0.8125 0.125 0
0.8125 0.0625 0
0.875 0.1875 0
0.8125 0.1875 0
1 0.0625 0
1 0.1875 0
0.9375 0.25 0
0.9375 0.125 0
0.9375 0.1875 0
0.125 0.3125 0
0.0625 0.25 0
0.25 0.3125 0
0.1875 0.3125 0
0.1875 0.4375 0
0.1875 0.375 0
0 0.3125 0
0.0625 0.3125 0
0.1875 0.5 0
0 0.4375 0
0.0625 0.4375 0
0.0625 0.375 0
0.125 0.4375 0
0.375 0.3125 0
0.3125 0.25 0
0.5 0.3125 0
0.4375 0.3125 0
0.4375 0.4375 0
0.4375 0.375 0
0.3125 0.3125 0
0.4375 0.5 0
0.25 0.4375 0
0.3125 0.4375 0
0.3125 0.375 0
0.375 0.4375 0
0.625 0.3125 0
0.5625 0.25 0
0.75 0.3125 0
0.6875 0.3125 0
0.6875 0.4375 0
0.6875 0.375 0
0.5625 0.3125 0
0.6875 0.5 0
0.5 0.4375 0
0.5625 0.4375 0
0.5625 0.375 0
0.625 0.4375 0
0.875 0.3125 0
0.8125 0.25 0
1 0.3125 0
0.9375 0.3125 0
1 0.4375 0
0.9375 0.4375 0
0.9375 0.375 0
0.8125 0.3125 0
0.9375 0.5 0
0.75 0.4375 0
0.8125 0.4375 0
0.8125 0.375 0
0.875 0.4375 0
0.125 0.5625 0
0.0625 0.5 0
0.25 0.5625 0
0.1875 0.5625 0
0.1875 0.6875 0
0.1875 0.625 0
0 0.5625 0
0.0625 0.5625 0
0.1875 0.75 0
0 0.6875 0
0.0625 0.6875 0
0.0625 0.625 0
0.125 0.6875 0
0.375 0.5625 0
0.3125 0.5 0
0.5 0.5625 0
0.4375 0.5625 0
0.4375 0.6875 0
0.4375 0.625 0
0.3125 0.5625 0
0.4375 0.75 0
0.25 0.6875 0
0.3125 0.6875 0
0.3125 0.625 0
0.375 0.6875 0
0.625 0.5625 0
0.5625 0.5 0
0.75 0.5625 0
0.6875 0.5625 0
0.6875 0.6875 0
0.6875 0.625 0
0.5625 0.5625 0
0.6875 0.75 0
0.5 0.6875 0
0.5625 0.6875 0
0.5625 0.625 0
0.625 0.6875 0
0.875 0.5625 0
0.8125 0.5 0
1 0.5625 0
0.9375 0.5625 0
1 0.6875 0
0.9375 0.6875 0
0.9375 0.625 0
0.8125 0.5625 0
0.9375 0.75 0
0.75 0.6875 0
0.8125 0.6875 0
0.8125 0.625 0
0.875 0.6875 0
0 0.8125 0
0.0625 0.75 0
0.1875 0.8125 0
0.125 0.8125 0
0 0.9375 0
0.0625 0.8125 0
0.0625 0.875 0
0.125 0.9375 0
0.0625 1 0
0.0625 0.9375 0
0.25 0.8125 0
0.1875 1 0
0.1875 0.875 0
0.1875 0.9375 0
0.375 0.8125 0
0.3125 0.75 0
0.5 0.8125 0
0.4375 0.8125 0
0.4375 0.9375 0
0.4375 0.875 0
0.3125 0.8125 0
0.4375 1 0
0.375 0.9375 0
0.3125 1 0
0.25 0.9375 0
0.3125 0.9375 0
0.3125 0.875 0
0.625 0.8125 0
0.5625 0.75 0
0.75 0.8125 0
0.6875 0.8125 0
0.6875 0.9375 0
0.6875 0.875 0
0.5625 0.8125 0
0.6875 1 0
0.625 0.9375 0
0.5625 1 0
0.5 0.9375 0
0.5625 0.9375 0
0.5625 0.875 0
0.875 0.8125 0
0.8125 0.75 0
1 0.8125 0
0.9375 0.8125 0
1 0.9375 0
0.9375 0.9375 0
0.9375 0.875 0
0.8125 0.8125 0
0.9375 1 0
0.875 0.9375 0
0.8125 1 0
0.75 0.9375 0
0.8125 0.9375 0
0.8125 0.875 0

CELLS 576 2240
3 0 82 89
3 82 26 81
3 89 81 28
3 81 89 82
3 26 85 84
3 85 1 83
3 84 83 25
3 83 84 85
3 28 87 86
3 87 25 104
3 86 104 6
3 104 86 87
3 25 87 84
3 87 28 81
3 84 81 26
3 81 84 87
3 0 89 88
3 89 28 93
3 88 93 27
3 93 88 89
3 28 86 94
3 86 6 90
3 94 90 39
3 90 94 86
3 27 92 91
3 92 39 136
3 91 136 5
3 136 91 92
3 39 92 94
3 92 27 93
3 94 93 28
3 93 94 92
3 1 96 102
3 96 30 95
3 102 95 31
3 95 102 96
3 30 99 98
3 99 2 97
3 98 97 29
3 97 98 99
3 31 101 100
3 101 29 117
3 100 117 7
3 117 100 101
3 29 101 98
3 101 31 95
3 98 95 30
3 95 98 101
3 1 102 83
3 102 31 106
3 83 106 25
3 106 83 102
3 31 100 107
3 100 7 103
3 107 103 43
3 103 107 100
3 25 105 104
3 105 43 149
3 104 149 6
3 149 104 105
3 43 105 107
3 105 25 106
3 107 106 31
3 106 107 105
3 2 109 115
3 109 33 108
3 115 108 34
3 108 115 109
3 33 112 111
3 112 3 110
3 111 110 32
3 110 111 112
3 34 114 113
3 114 32 125
3 113 125 8
3 125 113 114
3 32 114 111
3 114 34 108
3 111 108 33
3 108 111 114
3 2 115 97
3 115 34 119
3 97 119 29
3 119 97 115
3 34 113 120
3 113 8 116
3 120 116 46
3 116 120 113
3 29 118 117
3 118 46 161
3 117 161 7
3 161 117 118
3 46 118 120
3 118 29 119
3 120 119 34
3 119 120 118
3 3 121 110
3 121 36 127
3 110 127 32
3 127 110 121
3 36 124 123
3 124 4 122
3 123 122 35
3 122 123 124
3 32 126 125
3 126 35 129
3 125 129 8
3 129 125 126
3 35 126 123
3 126 32 127
3 123 127 36
3 127 123 126
3 8 129 173
3 129 35 128
3 173 128 49
3 128 173 129
3 35 122 133
3 122 4 130
3 133 130 37
3 130 133 122
3 49 134 132
3 134 37 131
3 132 131 9
3 131 132 134
3 37 134 133
3 134 49 128
3 133 128 35
3 128 133 134
3 5 136 142
3 136 39 135
3 142 135 41
3 135 142 136
3 39 90 138
3 90 6 137
3 138 137 38
3 137 138 90
3 41 140 139
3 140 38 156
3 139 156 11
3 156 139 140
3 38 140 138
3 140 41 135
3 138 135 39
3 135 138 140
3 5 142 141
3 142 41 146
3 141 146 40
3 146 141 142
3 41 139 147
3 139 11 143
3 147 143 52
3 143 147 139
3 40 145 144
3 145 52 186
3 144 186 10
3 186 144 145
3 52 145 147
3 145 40 146
3 147 146 41
3 146 147 145
3 6 149 154
3 149 43 148
3 154 148 44
3 148 154 149
3 43 103 151
3 103 7 150
3 151 150 42
3 150 151 103
3 44 153 152
3 153 42 168
3 152 168 12
3 168 152 153
3 42 153 151
3 153 44 148
3 151 148 43
3 148 151 153
3 6 154 137
3 154 44 158
3 137 158 38
3 158 137 154
3 44 152 159
3 152 12 155
3 159 155 56
3 155 159 152
3 38 157 156
3 157 56 199
3 156 199 11
3 199 156 157
3 56 157 159
3 157 38 158
3 159 158 44
3 158 159 157
3 7 161 166
3 161 46 160
3 166 160 47
3 160 166 161
3 46 116 163
3 116 8 162
3 163 162 45
3 162 163 116
3 47 165 164
3 165 45 181
3 164 181 13
3 181 164 165
3 45 165 163
3 165 47 160
3 163 160 46
3 160 163 165
3 7 166 150
3 166 47 170
3 150 170 42
3 170 150 166
3 47 164 171
3 164 13 167
3 171 167 59
3 167 171 164
3 42 169 168
3 169 59 211
3 168 211 12
3 211 168 169
3 59 169 171
3 169 42 170
3 171 170 47
3 170 171 169
3 8 173 179
3 173 49 172
3 179 172 50
3 172 179 173
3 49 132 175
3 132 9 174
3 175 174 48
3 174 175 132
3 50 178 177
3 178 48 176
3 177 176 14
3 176 177 178
3 48 178 175
3 178 50 172
3 175 172 49
3 172 175 178
3 8 179 162
3 179 50 183
3 162 183 45
3 183 162 179
3 50 177 184
3 177 14 180
3 184 180 62
3 180 184 177
3 45 182 181
3 182 62 223
3 181 223 13
3 223 181 182
3 62 182 184
3 182 45 183
3 184 183 50
3 183 184 182
3 10 186 192
3 186 52 185
3 192 185 54
3 185 192 186
3 52 143 188
3 143 11 187
3 188 187 51
3 187 188 143
3 54 190 189
3 190 51 206
3 189 206 16
3 206 189 190
3 51 190 188
3 190 54 185
3 188 185 52
3 185 188 190
3 10 192 191
3 192 54 196
3 191 196 53
3 196 191 192
3 54 189 197
3 189 16 193
3 197 193 66
3 193 197 189
3 53 195 194
3 195 66 236
3 194 236 15
3 236 194 195
3 66 195 197
3 195 53 196
3 197 196 54
3 196 197 195
3 11 199 204
3 199 56 198
3 204 198 57
3 198 204 199
3 56 155 201
3 155 12 200
3 201 200 55
3 200 201 155
3 57 203 202
3 203 55 218
3 202 218 17
3 218 202 203
3 55 203 201
3 203 57 198
3 201 198 56
3 198 201 203
3 11 204 187
3 204 57 208
3 187 208 51
3 208 187 204
3 57 202 209
3 202 17 205
3 209 205 70
3 205 209 202
3 51 207 206
3 207 70 250
3 206 250 16
3 250 206 207
3 70 207 209
3 207 51 208
3 209 208 57
3 208 209 207
3 12 211 216
3 211 59 210
3 216 210 60
3 210 216 211
3 59 167 213
3 167 13 212
3 213 212 58
3 212 213 167
3 60 215 214
3 215 58 231
3 214 231 18
3 231 214 215
3 58 215 213
3 215 60 210
3 213 210 59
3 210 213 215
3 12 216 200
3 216 60 220
3 200 220 55
3 220 200 216
3 60 214 221
3 214 18 217
3 221 217 74
3 217 221 214
3 55 219 218
3 219 74 263
3 218 263 17
3 263 218 219
3 74 219 221
3 219 55 220
3 221 220 60
3 220 221 219
3 13 223 229
3 223 62 222
3 229 222 63
3 222 229 223
3 62 180 225
3 180 14 224
3 225 224 61
3 224 225 180
3 63 228 227
3 228 61 226
3 227 226 19
3 226 227 228
3 61 228 225
3 228 63 222
3 225 222 62
3 222 225 228
3 13 229 212
3 229 63 233
3 212 233 58
3 233 212 229
3 63 227 234
3 227 19 230
3 234 230 78
3 230 234 227
3 58 232 231
3 232 78 276
3 231 276 18
3 276 231 232
3 78 232 234
3 232 58 233
3 234 233 63
3 233 234 232
3 15 236 235
3 236 66 240
3 235 240 65
3 240 235 236
3 66 193 238
3 193 16 237
3 238 237 64
3 237 238 193
3 65 241 239
3 241 64 244
3 239 244 20
3 244 239 241
3 64 241 238
3 241 65 240
3 238 240 66
3 240 238 241
3 20 244 243
3 244 64 242
3 243 242 68
3 242 243 244
3 64 237 247
3 237 16 245
3 247 245 67
3 245 247 237
3 68 248 246
3 248 67 259
3 246 259 21
3 259 246 248
3 67 248 247
3 248 68 242
3 247 242 64
3 242 247 248
3 16 250 255
3 250 70 249
3 255 249 72
3 249 255 250
3 70 205 252
3 205 17 251
3 252 251 69
3 251 252 205
3 72 254 253
3 254 69 272
3 253 272 22
3 272 253 254
3 69 254 252
3 254 72 249
3 252 249 70
3 249 252 254
3 16 255 245
3 255 72 261
3 245 261 67
3 261 245 255
3 72 253 257
3 253 22 256
3 257 256 71
3 256 257 253
3 67 260 259
3 260 71 258
3 259 258 21
3 258 259 260
3 71 260 257
3 260 67 261
3 257 261 72
3 261 257 260
3 17 263 268
3 263 74 262
3 268 262 76
3 262 268 263
3 74 217 265
3 217 18 264
3 265 264 73
3 264 265 217
3 76 267 266
3 267 73 286
3 266 286 23
3 286 266 267
3 73 267 265
3 267 76 262
3 265 262 74
3 262 265 267
3 17 268 251
3 268 76 274
3 251 274 69
3 274 251 268
3 76 266 270
3 266 23 269
3 270 269 75
3 269 270 266
3 69 273 272
3 273 75 271
3 272 271 22
3 271 272 273
3 75 273 270
3 273 69 274
3 270 274 76
3 274 270 273
3 18 276 282
3 276 78 275
3 282 275 80
3 275 282 276
3 78 230 278
3 230 19 277
3 278 277 77
3 277 278 230
3 80 281 280
3 281 77 279
3 280 279 24
3 279 280 281
3 77 281 278
3 281 80 275
3 278 275 78
3 275 278 281
3 18 282 264
3 282 80 288
3 264 288 73
3 288 264 282
3 80 280 284
3 280 24 283
3 284 283 79
3 283 284 280
3 73 287 286
3 287 79 285
3 286 285 23
3 285 286 287
3 79 287 284
3 287 73 288
3 284 288 80
3 288 284 287
2 0 82
2 82 26
2 26 85
2 85 1
2 27 88
2 88 0
2 5 91
2 91 27
2 1 96
2 96 30
2 30 99
2 99 2
2 2 109
2 109 33
2 33 112
2 112 3
2 3 121
2 121 36
2 36 124
2 124 4
2 4 130
2 130 37
2 37 131
2 131 9
2 40 141
2 141 5
2 10 144
2 144 40
2 9 174
2 174 48
2 48 176
2 176 14
2 53 191
2 191 10
2 15 194
2 194 53
2 14 224
2 224 61
2 61 226
2 226 19
2 65 235
2 235 15
2 20 239
2 239 65
2 68 243
2 243 20
2 21 246
2 246 68
2 22 256
2 256 71
2 71 258
2 258 21
2 23 269
2 269 75
2 75 271
2 271 22
2 19 277
2 277 77
2 77 279
2 279 24
2 24 283
2 283 79
2 79 285
2 285 23

CELL_TYPES 576
5 5 5 5 5 5 5 5 5 5 5 5 5 5 5 5 5 5 5 5 5 5 5 5 5 5 5 5 5 5 5 5 5 5 5 5 5 5 5 5 5 5 5 5 5 5 5 5 5 5 5 5 5 5 5 5 5 5 5 5 5 5 5 5 5 5 5 5 5 5 5 5 5 5 5 5 5 5 5 5 5 5 5 5 5 5 5 5 5 5 5 5 5 5 5 5 5 5 5 5 5 5 5 5 5 5 5 5 5 5 5 5 5 5 5 5 5 5 5 5 5 5 5 5 5 5 5 5 5 5 5 5 5 5 5 5 5 5 5 5 5 5 5 5 5 5 5 5 5 5 5 5 5 5 5 5 5 5 5 5 5 5 5 5 5 5 5 5 5 5 5 5 5 5 5 5 5 5 5 5 5 5 5 5 5 5 5 5 5 5 5 5 5 5 5 5 5 5 5 5 5 5 5 5 5 5 5 5 5 5 5 5 5 5 5 5 5 5 5 5 5 5 5 5 5 5 5 5 5 5 5 5 5 5 5 5 5 5 5 5 5 5 5 5 5 5 5 5 5 5 5 5 5 5 5 5 5 5 5 5 5 5 5 5 5 5 5 5 5 5 5 5 5 5 5 5 5 5 5 5 5 5 5 5 5 5 5 5 5 5 5 5 5 5 5 5 5 5 5 5 5 5 5 5 5 5 5 5 5 5 5 5 5 5 5 5 5 5 5 5 5 5 5 5 5 5 5 5 5 5 5 5 5 5 5 5 5 5 5 5 5 5 5 5 5 5 5 5 5 5 5 5 5 5 5 5 5 5 5 5 5 5 5 5 5 5 5 5 5 5 5 5 5 5 5 5 5 5 5 5 5 5 5 5 5 5 5 5 5 5 5 5 5 5 5 5 5 5 5 5 5 5 5 5 5 5 5 5 5 5 5 5 5 5 5 5 5 5 5 5 5 5 5 5 5 5 5 5 5 5 5 5 5 5 5 5 5 5 5 5 5 5 5 5 5 5 5 5 5 5 5 5 5 5 5 5 5 5 5 5 5 5 5 5 5 5 5 5 5 5 5 5 5 5 5 5 5 5 5 5 5 5 5 5 5 5 5 5 5 5 5 5 5 5 5 5 5 5 5 5 5 5 5 5 5 5 5 5 5 5 5 5 3 3 3 3 3 3 3 3 3 3 3 3 3 3 3 3 3 3 3 3 3 3 3 3 3 3 3 3 3 3 3 3 3 3 3 3 3 3 3 3 3 3 3 3 3 3 3 3 3 3 3 3 3 3 3 3 3 3 3 3 3 3 3 3 
CELL_DATA 576
Scalars  Label int 1
LOOKUP_TABLE FreeFempp_table
0
0
0
0
0
0
0
0
0
0
0
0
0
0
0
0
0
0
0
0
0
0
0
0
0
0
0
0
0
0
0
0
0
0
0
0
0
0
0
0
0
0
0
0
0
0
0
0
0
0
0
0
0
0
0
0
0
0
0
0
0
0
0
0
0
0
0
0
0
0
0
0
0
0
0
0
0
0
0
0
0
0
0
0
0
0
0
0
0
0
0
0
0
0
0
0
0
0
0
0
0
0
0
0
0
0
0
0
0
0
0
0
0
0
0
0
0
0
0
0
0
0
0
0
0
0
0
0
0
0
0
0
0
0
0
0
0
0
0
0
0
0
0
0
0
0
0
0
0
0
0
0
0
0
0
0
0
0
0
0
0
0
0
0
0
0
0
0
0
0
0
0
0
0
0
0
0
0
0
0
0
0
0
0
0
0
0
0
0
0
0
0
0
0
0
0
0
0
0
0
0
0
0
0
0
0
0
0
0
0
0
0
0
0
0
0
0
0
0
0
0
0
0
0
0
0
0
0
0
0
0
0
0
0
0
0
0
0
0
0
0
0
0
0
0
0
0
0
0
0
0
0
0
0
0
0
0
0
0
0
0
0
0
0
0
0
0
0
0
0
0
0
0
0
0
0
0
0
0
0
0
0
0
0
0
0
0
0
0
0
0
0
0
0
0
0
0
0
0
0
0
0
0
0
0
0
0
0
0
0
0
0
0
0
0
0
0
0
0
0
0
0
0
0
0
0
0
0
0
0
0
0
0
0
0
0
0
0
0
0
0
0
0
0
0
0
0
0
0
0
0
0
0
0
0
0
0
0
0
0
0
0
0
0
0
0
0
0
0
0
0
0
0
0
0
0
0
0
0
0
0
0
0
0
0
0
0
0
0
0
0
0
0
0
0
0
0
0
0
0
0
0
0
0
0
0
0
0
0
0
0
0
0
0
0
0
0
0
0
0
0
0
0
0
0
0
0
0
0
0
0
0
0
0
0
0
0
0
0
0
0
0
0
0
0
0
0
0
0
0
0
0
0
0
0
0
0
0
0
0
0
0
0
0
0
0
0
0
0
0
0
0
0
0
0
0
0
0
0
0
0
0
0
0
0
0
0
0
0
0
0
0
0
0
0
0
0
0
0
0
0
0
0
0
0
0
0
0
0
0
0
0
1
1
1
1
4
4
4
4
1
1
1
1
1
1
1
1
1
1
1
1
2
2
2
2
4
4
4
4
2
2
2
2
4
4
4
4
2
2
2
2
4
4
4
4
3
3
3
3
3
3
3
3
3
3
3
3
2
2
2
2
3
3
3
3

LOOKUP_TABLE FreeFempp_table 5
1.00000000 0.00000000 0.00000000 1.00000000
1.00000000 1.00000000 0.00000000 1.00000000
1.00000000 0.00000000 1.00000000 1.00000000
0.00000000 1.00000000 0.00000000 1.00000000
0.00000000 1.00000000 1.00000000 1.00000000

FIELD FieldData 1
Pressure 1 576 float
1.30848259e-01 3.22232604e-01 3.19647014e-01 2.59040862e-01 5.01233757e-01 6.60972714e-01 6.55669093e-01 6.09283149e-01 4.88401502e-01 6.44050956e-01 6.26230299e-01 5.89785099e-01 6.02434993e-01 4.37692285e-01 4.42667723e-01 4.97211844e-01 6.54591769e-02 2.56129324e-01 6.47234395e-02 1.29798338e-01 4.28501636e-01 5.71455240e-01 4.15184289e-01 4.74887580e-01 6.33643791e-02 2.42958054e-01 6.13950863e-02 1.23970538e-01 3.05295229e-01 1.27498373e-01 3.13983023e-01 2.50751138e-01 7.95310915e-01 8.99085760e-01 8.91871452e-01 8.66767585e-01 9.68309224e-01 1.00032115e+00 9.92294550e-01 9.92294550e-01 9.43519235e-01 9.74711597e-01 9.47741628e-01 9.60539520e-01 9.81141448e-01 9.37089324e-01 9.47741628e-01 9.60539520e-01 7.52484143e-01 8.57025385e-01 7.44026482e-01 7.88929343e-01 9.17412400e-01 9.30687010e-01 8.88900220e-01 9.17412400e-01 7.28403449e-01 8.12953532e-01 7.05765426e-01 7.53507316e-01 8.51827502e-01 7.74949908e-01 8.76067996e-01 8.39029610e-01 9.93891239e-01 9.49266672e-01 9.41649735e-01 9.66753602e-01 8.68162334e-01 7.53694952e-01 7.47647285e-01 7.94033229e-01 8.45936239e-01 7.34399378e-01 7.14078784e-01 7.68622875e-01 7.85108566e-01 8.87552202e-01 8.97641361e-01 8.61196160e-01 9.98714089e-01 9.55887616e-01 9.87488866e-01 9.85916257e-01 8.68915379e-01 7.44734943e-01 8.41910481e-01 8.22529435e-01 9.66753602e-01 9.06731844e-01 9.36707973e-01 9.41649735e-01 8.99370730e-01 9.68446314e-01 9.24964190e-01 9.35815930e-01 6.60972714e-01 5.01233757e-01 6.55669093e-01 6.09283149e-01 3.22232604e-01 1.30848259e-01 3.19647014e-01 2.59040862e-01 6.44050956e-01 4.88401502e-01 6.26230299e-01 5.89785099e-01 4.37692285e-01 6.02434993e-01 4.42667723e-01 4.97211844e-01 5.71455240e-01 4.28501636e-01 4.15184289e-01 4.74887580e-01 2.56129324e-01 6.54591769e-02 6.47234395e-02 1.29798338e-01 2.42958054e-01 6.33643791e-02 6.13950863e-02 1.23970538e-01 1.27498373e-01 3.05295229e-01 3.13983023e-01 2.50751138e-01 1.19248800e-01 2.93667257e-01 2.79211134e-01 2.32825175e-01 4.56800252e-01 6.02378666e-01 5.72725832e-01 5.47621965e-01 4.07644451e-01 5.37557304e-01 4.97211844e-01 4.84413981e-01 5.18514752e-01 3.76720995e-01 3.97868484e-01 4.34313685e-01 5.88345230e-02 2.20450059e-01 5.57073504e-02 1.13378622e-01 3.51945460e-01 4.45648044e-01 3.23780507e-01 3.77049357e-01 5.20436876e-02 1.89470276e-01 4.78788167e-02 9.84296352e-02 2.42397085e-01 1.06416553e-01 2.62066036e-01 2.05951884e-01 7.24808037e-01 8.19383383e-01 7.79048204e-01 7.79048204e-01 8.82470310e-01 9.11644459e-01 8.66767585e-01 8.91871452e-01 7.87508607e-01 8.13543320e-01 7.52484143e-01 7.88929343e-01 8.44466746e-01 8.06551158e-01 8.51827502e-01 8.39029610e-01 6.76330566e-01 7.37640262e-01 6.40382290e-01 6.89128458e-01 7.53507316e-01 7.25794077e-01 6.93206787e-01 7.28403449e-01 5.98266721e-01 6.33979917e-01 5.50389588e-01 5.98266721e-01 6.76330566e-01 6.46812141e-01 7.31210351e-01 6.89128458e-01 9.05784547e-01 8.65115881e-01 8.22529435e-01 8.68915379e-01 7.91201234e-01 6.86881244e-01 6.53068662e-01 7.13674784e-01 7.06060886e-01 6.12966657e-01 5.66961408e-01 6.31300569e-01 6.75741553e-01 7.63914585e-01 8.06797504e-01 7.52253354e-01 8.97641361e-01 8.22730839e-01 8.49929929e-01 8.61196160e-01 7.13674784e-01 5.80779850e-01 6.56561911e-01 6.53068662e-01 7.94033229e-01 7.07112730e-01 7.30489552e-01 7.47647285e-01 7.14078784e-01 8.08313966e-01 7.72021592e-01 7.68622875e-01 5.56164742e-01 4.04075176e-01 3.84184062e-01 4.49783713e-01 2.36457214e-01 5.97523339e-02 5.68109490e-02 1.17417105e-01 2.11012289e-01 5.33224456e-02 4.93204147e-02 1.03864521e-01 1.11176156e-01 2.73787230e-01 2.89156467e-01 2.24817306e-01 5.93125999e-01 4.25876796e-01 5.61600208e-01 5.28786838e-01 2.55781263e-01 9.55526084e-02 2.35312000e-01 1.95175111e-01 5.24665833e-01 3.66028488e-01 4.82678682e-01 4.59066212e-01 3.33529323e-01 4.96316433e-01 3.60593051e-01 3.97868484e-01 8.94947797e-02 2.20393732e-01 1.96267873e-01 1.71163976e-01 3.42823088e-01 4.52077925e-01 4.02590275e-01 4.02590275e-01 2.64827222e-01 3.49225432e-01 2.92497367e-01 3.05295229e-01 3.55655313e-01 2.58397341e-01 2.92497367e-01 3.05295229e-01 4.32528444e-02 1.51209265e-01 3.82103249e-02 7.96980485e-02 2.21808776e-01 2.51994967e-01 1.83084086e-01 2.21808776e-01 3.27998176e-02 1.07137367e-01 2.70734299e-02 5.79037108e-02 1.42596185e-01 6.91337734e-02 1.70251831e-01 1.29798338e-01 5.43959677e-01 6.14937365e-01 5.47621965e-01 5.72725832e-01 6.62283361e-01 6.84178114e-01 6.09283149e-01 6.55669093e-01 5.11606872e-01 5.28520405e-01 4.42667723e-01 4.97211844e-01 5.79229593e-01 5.53222835e-01 6.26230299e-01 5.89785099e-01 4.97211844e-01 5.05956054e-01 4.39245671e-01 4.84413981e-01 4.74887580e-01 4.10405636e-01 3.91978890e-01 4.28501636e-01 3.77049357e-01 3.58488619e-01 3.11221838e-01 3.51945460e-01 3.97868484e-01 4.20203120e-01 4.75032628e-01 4.34313685e-01 6.79780364e-01 6.49259031e-01 5.78186512e-01 6.38792634e-01 5.93787014e-01 5.15496075e-01 4.59066212e-01 5.24665833e-01 4.58694190e-01 3.98215294e-01 3.33529323e-01 3.97868484e-01 4.63499039e-01 5.23977935e-01 5.93125999e-01 5.28786838e-01 6.59910858e-01 5.64320683e-01 5.82976878e-01 6.05366766e-01 4.49783713e-01 3.28406245e-01 3.71257782e-01 3.84184062e-01 5.00428498e-01 3.99842113e-01 4.13060725e-01 4.39822346e-01 4.20074821e-01 5.25123179e-01 5.01545727e-01 4.84413981e-01 4.17394936e-01 3.03253531e-01 2.70057261e-01 3.30663413e-01 1.77458286e-01 4.48434055e-02 3.99345271e-02 8.63204747e-02 1.37084648e-01 3.46410573e-02 2.90139765e-02 6.54591769e-02 7.62570277e-02 1.87793851e-01 2.12576538e-01 1.58032432e-01 4.36043084e-01 2.92113870e-01 3.85208130e-01 3.71703923e-01 1.61202610e-01 5.40309288e-02 1.33058906e-01 1.14816673e-01 3.30663413e-01 2.06973508e-01 2.72934228e-01 2.70057261e-01 1.96207032e-01 3.22433203e-01 2.34260172e-01 2.50751138e-01 2.31074747e-02 9.14429352e-02 1.69784352e-02 4.20823283e-02 1.56264305e-01 2.15080515e-01 1.14816673e-01 1.61202610e-01 1.06858835e-02 4.22871225e-02 4.29042149e-03 1.70882754e-02 7.32105747e-02 2.97284517e-02 1.03633769e-01 6.71885610e-02 4.28352877e-03 4.20823283e-02 1.05488030e-02 1.69784352e-02 1.13879256e-01 2.12576538e-01 1.50171623e-01 1.58032432e-01 1.64086930e-02 8.63204747e-02 2.16380078e-02 3.99345271e-02 9.94624197e-02 2.90139765e-02 7.22632930e-02 6.54591769e-02 2.80298382e-01 3.16872656e-01 2.32825175e-01 2.79211134e-01 3.41269702e-01 3.52551937e-01 2.59040862e-01 3.19647014e-01 1.57817692e-01 1.63035080e-01 6.54591769e-02 1.29798338e-01 2.25810006e-01 2.15671405e-01 3.05295229e-01 2.50751138e-01 2.42397085e-01 1.97244659e-01 1.71237916e-01 2.05951884e-01 1.23970538e-01 3.25366296e-02 3.10757738e-02 6.33643791e-02 9.84296352e-02 2.84206904e-02 2.46734191e-02 5.20436876e-02 5.88345230e-02 1.29621953e-01 1.46535456e-01 1.13378622e-01 3.50285769e-01 3.34558368e-01 2.45819911e-01 3.11419547e-01 3.05974036e-01 2.65631318e-01 1.95175111e-01 2.55781263e-01 1.41495466e-01 1.22839265e-01 4.93204147e-02 1.03864521e-01 1.80692986e-01 2.04270408e-01 2.89156467e-01 2.24817306e-01 3.21714938e-01 2.19997838e-01 2.27270871e-01 2.57375777e-01 1.17417105e-01 2.60357838e-02 2.94330195e-02 5.68109490e-02 1.30638048e-01 3.16991620e-02 3.27471234e-02 6.50384203e-02 6.21182695e-02 1.61987111e-01 1.54714078e-01 1.26457423e-01 2.15080515e-01 1.56264305e-01 1.14816673e-01 1.61202610e-01 9.14429352e-02 2.31074747e-02 1.69784352e-02 4.20823283e-02 4.22871225e-02 1.06858835e-02 4.29042149e-03 1.70882754e-02 2.97284517e-02 7.32105747e-02 1.03633769e-01 6.71885610e-02 2.12576538e-01 1.13879256e-01 1.50171623e-01 1.58032432e-01 4.20823283e-02 4.28352877e-03 1.05488030e-02 1.69784352e-02 8.63204747e-02 1.64086930e-02 2.16380078e-02 3.99345271e-02 2.90139765e-02 9.94624197e-02 7.22632930e-02 6.54591769e-02 1.30848259e-01 3.22232604e-01 5.01233757e-01 6.60972714e-01 6.47234395e-02 6.54591769e-02 6.13950863e-02 6.33643791e-02 7.95310915e-01 8.99085760e-01 9.68309224e-01 1.00032115e+00 9.93891239e-01 9.49266672e-01 8.68162334e-01 7.53694952e-01 6.60972714e-01 5.01233757e-01 3.22232604e-01 1.30848259e-01 6.54591769e-02 6.47234395e-02 6.33643791e-02 6.13950863e-02 5.57073504e-02 5.88345230e-02 4.78788167e-02 5.20436876e-02 5.97523339e-02 5.68109490e-02 5.33224456e-02 4.93204147e-02 3.82103249e-02 4.32528444e-02 2.70734299e-02 3.27998176e-02 4.48434055e-02 3.99345271e-02 3.46410573e-02 2.90139765e-02 1.69784352e-02 2.31074747e-02 4.29042149e-03 1.06858835e-02 1.05488030e-02 4.28352877e-03 2.16380078e-02 1.64086930e-02 3.25366296e-02 3.10757738e-02 2.84206904e-02 2.46734191e-02 2.60357838e-02 2.94330195e-02 3.16991620e-02 3.27471234e-02 2.31074747e-02 1.69784352e-02 1.06858835e-02 4.29042149e-03 4.28352877e-03 1.05488030e-02 1.64086930e-02 2.16380078e-02 
POINT_DATA 289
FIELD FieldData 2
Velocity 3 289 float