# vtk DataFile Version 2.0
./pics/TrueSolution_1_1.vtk, Created by Freefem++ 
ASCII
DATASET UNSTRUCTURED_GRID
POINTS 289 float
0 0 0
0.25 0 0
0.5 0 0
0.75 0 0
1 0 0
0 0.25 0
0.25 0.25 0
0.5 0.25 0
0.75 0.25 0
1 0.25 0
0 0.5 0
0.25 0.5 0
0.5 0.5 0
0.75 0.5 0
1 0.5 0
0 0.75 0
0.25 0.75 0
0.5 0.75 0
0.75 0.75 0
1 0.75 0
0 1 0
0.25 1 0
0.5 1 0
0.75 1 0
1 1 0
0.25 0.125 0
0.125 0 0
0 0.125 0
0.125 0.125 0
0.5 0.125 0
0.375 0 0
0.375 0.125 0
0.75 0.125 0
0.625 0 0
0.625 0.125 0
0.875 0.125 0
0.875 0 0
1 0.125 0
0.25 0.375 0
0.125 0.25 0
0 0.375 0
0.125 0.375 0
0.5 0.375 0
0.375 0.25 0
0.375 0.375 0
0.75 0.375 0
0.625 0.25 0
0.625 0.375 0
1 0.375 0
0.875 0.25 0
0.875 0.375 0
0.25 0.625 0
0.125 0.5 0
0 0.625 0
0.125 0.625 0
0.5 0.625 0
0.375 0.5 0
0.375 0.625 0
0.75 0.625 0
0.625 0.5 0
0.625 0.625 0
1 0.625 0
0.875 0.5 0
0.875 0.625 0
0.125 0.875 0
0 0.875 0
0.125 0.75 0
0.25 0.875 0
0.125 1 0
0.5 0.875 0
0.375 0.75 0
0.375 1 0
0.375 0.875 0
0.75 0.875 0
0.625 0.75 0
0.625 1 0
0.625 0.875 0
1 0.875 0
0.875 0.75 0
0.875 1 0
0.875 0.875 0
0.125 0.0625 0
0.0625 0 0
0.25 0.0625 0
0.1875 0.0625 0
0.1875 0 0
0.1875 0.1875 0
0.1875 0.125 0
0 0.0625 0
0.0625 0.0625 0
0.1875 0.25 0
0 0.1875 0
0.0625 0.1875 0
0.0625 0.125 0
0.125 0.1875 0
0.375 0.0625 0
0.3125 0 0
0.5 0.0625 0
0.4375 0.0625 0
0.4375 0 0
0.4375 0.1875 0
0.4375 0.125 0
0.3125 0.0625 0
0.4375 0.25 0
0.25 0.1875 0
0.3125 0.1875 0
0.3125 0.125 0
0.375 0.1875 0
0.625 0.0625 0
0.5625 0 0
0.75 0.0625 0
0.6875 0.0625 0
0.6875 0 0
0.6875 0.1875 0
0.6875 0.125 0
0.5625 0.0625 0
0.6875 0.25 0
0.5 0.1875 0
0.5625 0.1875 0
0.5625 0.125 0
0.625 0.1875 0
0.8125 0 0
0.9375 0.0625 0
0.875 0.0625 0
0.9375 0 0
0.75 0.1875 0
0.8125 0.125 0
0.8125 0.0625 0
0.875 0.1875 0
0.8125 0.1875 0
1 0.0625 0
1 0.1875 0
0.9375 0.25 0
0.9375 0.125 0
0.9375 0.1875 0
0.125 0.3125 0
0.0625 0.25 0
0.25 0.3125 0
0.1875 0.3125 0
0.1875 0.4375 0
0.1875 0.375 0
0 0.3125 0
0.0625 0.3125 0
0.1875 0.5 0
0 0.4375 0
0.0625 0.4375 0
0.0625 0.375 0
0.125 0.4375 0
0.375 0.3125 0
0.3125 0.25 0
0.5 0.3125 0
0.4375 0.3125 0
0.4375 0.4375 0
0.4375 0.375 0
0.3125 0.3125 0
0.4375 0.5 0
0.25 0.4375 0
0.3125 0.4375 0
0.3125 0.375 0
0.375 0.4375 0
0.625 0.3125 0
0.5625 0.25 0
0.75 0.3125 0
0.6875 0.3125 0
0.6875 0.4375 0
0.6875 0.375 0
0.5625 0.3125 0
0.6875 0.5 0
0.5 0.4375 0
0.5625 0.4375 0
0.5625 0.375 0
0.625 0.4375 0
0.875 0.3125 0
0.8125 0.25 0
1 0.3125 0
0.9375 0.3125 0
1 0.4375 0
0.9375 0.4375 0
0.9375 0.375 0
0.8125 0.3125 0
0.9375 0.5 0
0.75 0.4375 0
0.8125 0.4375 0
0.8125 0.375 0
0.875 0.4375 0
0.125 0.5625 0
0.0625 0.5 0
0.25 0.5625 0
0.1875 0.5625 0
0.1875 0.6875 0
0.1875 0.625 0
0 0.5625 0
0.0625 0.5625 0
0.1875 0.75 0
0 0.6875 0
0.0625 0.6875 0
0.0625 0.625 0
0.125 0.6875 0
0.375 0.5625 0
0.3125 0.5 0
0.5 0.5625 0
0.4375 0.5625 0
0.4375 0.6875 0
0.4375 0.625 0
0.3125 0.5625 0
0.4375 0.75 0
0.25 0.6875 0
0.3125 0.6875 0
0.3125 0.625 0
0.375 0.6875 0
0.625 0.5625 0
0.5625 0.5 0
0.75 0.5625 0
0.6875 0.5625 0
0.6875 0.6875 0
0.6875 0.625 0
0.5625 0.5625 0
0.6875 0.75 0
0.5 0.6875 0
0.5625 0.6875 0
0.5625 0.625 0
0.625 0.6875 0
0.875 0.5625 0
0.8125 0.5 0
1 0.5625 0
0.9375 0.5625 0
1 0.6875 0
0.9375 0.6875 0
0.9375 0.625 0
0.8125 0.5625 0
0.9375 0.75 0
0.75 0.6875 0
0.8125 0.6875 0
0.8125 0.625 0
0.875 0.6875 0
0 0.8125 0
0.0625 0.75 0
0.1875 0.8125 0
0.125 0.8125 0
0 0.9375 0
0.0625 0.8125 0
0.0625 0.875 0
0.125 0.9375 0
0.0625 1 0
0.0625 0.9375 0
0.25 0.8125 0
0.1875 1 0
0.1875 0.875 0
0.1875 0.9375 0
0.375 0.8125 0
0.3125 0.75 0
0.5 0.8125 0
0.4375 0.8125 0
0.4375 0.9375 0
0.4375 0.875 0
0.3125 0.8125 0
0.4375 1 0
0.375 0.9375 0
0.3125 1 0
0.25 0.9375 0
0.3125 0.9375 0
0.3125 0.875 0
0.625 0.8125 0
0.5625 0.75 0
0.75 0.8125 0
0.6875 0.8125 0
0.6875 0.9375 0
0.6875 0.875 0
0.5625 0.8125 0
0.6875 1 0
0.625 0.9375 0
0.5625 1 0
0.5 0.9375 0
0.5625 0.9375 0
0.5625 0.875 0
0.875 0.8125 0
0.8125 0.75 0
1 0.8125 0
0.9375 0.8125 0
1 0.9375 0
0.9375 0.9375 0
0.9375 0.875 0
0.8125 0.8125 0
0.9375 1 0
0.875 0.9375 0
0.8125 1 0
0.75 0.9375 0
0.8125 0.9375 0
0.8125 0.875 0

CELLS 576 2240
3 0 82 89
3 82 26 81
3 89 81 28
3 81 89 82
3 26 85 84
3 85 1 83
3 84 83 25
3 83 84 85
3 28 87 86
3 87 25 104
3 86 104 6
3 104 86 87
3 25 87 84
3 87 28 81
3 84 81 26
3 81 84 87
3 0 89 88
3 89 28 93
3 88 93 27
3 93 88 89
3 28 86 94
3 86 6 90
3 94 90 39
3 90 94 86
3 27 92 91
3 92 39 136
3 91 136 5
3 136 91 92
3 39 92 94
3 92 27 93
3 94 93 28
3 93 94 92
3 1 96 102
3 96 30 95
3 102 95 31
3 95 102 96
3 30 99 98
3 99 2 97
3 98 97 29
3 97 98 99
3 31 101 100
3 101 29 117
3 100 117 7
3 117 100 101
3 29 101 98
3 101 31 95
3 98 95 30
3 95 98 101
3 1 102 83
3 102 31 106
3 83 106 25
3 106 83 102
3 31 100 107
3 100 7 103
3 107 103 43
3 103 107 100
3 25 105 104
3 105 43 149
3 104 149 6
3 149 104 105
3 43 105 107
3 105 25 106
3 107 106 31
3 106 107 105
3 2 109 115
3 109 33 108
3 115 108 34
3 108 115 109
3 33 112 111
3 112 3 110
3 111 110 32
3 110 111 112
3 34 114 113
3 114 32 125
3 113 125 8
3 125 113 114
3 32 114 111
3 114 34 108
3 111 108 33
3 108 111 114
3 2 115 97
3 115 34 119
3 97 119 29
3 119 97 115
3 34 113 120
3 113 8 116
3 120 116 46
3 116 120 113
3 29 118 117
3 118 46 161
3 117 161 7
3 161 117 118
3 46 118 120
3 118 29 119
3 120 119 34
3 119 120 118
3 3 121 110
3 121 36 127
3 110 127 32
3 127 110 121
3 36 124 123
3 124 4 122
3 123 122 35
3 122 123 124
3 32 126 125
3 126 35 129
3 125 129 8
3 129 125 126
3 35 126 123
3 126 32 127
3 123 127 36
3 127 123 126
3 8 129 173
3 129 35 128
3 173 128 49
3 128 173 129
3 35 122 133
3 122 4 130
3 133 130 37
3 130 133 122
3 49 134 132
3 134 37 131
3 132 131 9
3 131 132 134
3 37 134 133
3 134 49 128
3 133 128 35
3 128 133 134
3 5 136 142
3 136 39 135
3 142 135 41
3 135 142 136
3 39 90 138
3 90 6 137
3 138 137 38
3 137 138 90
3 41 140 139
3 140 38 156
3 139 156 11
3 156 139 140
3 38 140 138
3 140 41 135
3 138 135 39
3 135 138 140
3 5 142 141
3 142 41 146
3 141 146 40
3 146 141 142
3 41 139 147
3 139 11 143
3 147 143 52
3 143 147 139
3 40 145 144
3 145 52 186
3 144 186 10
3 186 144 145
3 52 145 147
3 145 40 146
3 147 146 41
3 146 147 145
3 6 149 154
3 149 43 148
3 154 148 44
3 148 154 149
3 43 103 151
3 103 7 150
3 151 150 42
3 150 151 103
3 44 153 152
3 153 42 168
3 152 168 12
3 168 152 153
3 42 153 151
3 153 44 148
3 151 148 43
3 148 151 153
3 6 154 137
3 154 44 158
3 137 158 38
3 158 137 154
3 44 152 159
3 152 12 155
3 159 155 56
3 155 159 152
3 38 157 156
3 157 56 199
3 156 199 11
3 199 156 157
3 56 157 159
3 157 38 158
3 159 158 44
3 158 159 157
3 7 161 166
3 161 46 160
3 166 160 47
3 160 166 161
3 46 116 163
3 116 8 162
3 163 162 45
3 162 163 116
3 47 165 164
3 165 45 181
3 164 181 13
3 181 164 165
3 45 165 163
3 165 47 160
3 163 160 46
3 160 163 165
3 7 166 150
3 166 47 170
3 150 170 42
3 170 150 166
3 47 164 171
3 164 13 167
3 171 167 59
3 167 171 164
3 42 169 168
3 169 59 211
3 168 211 12
3 211 168 169
3 59 169 171
3 169 42 170
3 171 170 47
3 170 171 169
3 8 173 179
3 173 49 172
3 179 172 50
3 172 179 173
3 49 132 175
3 132 9 174
3 175 174 48
3 174 175 132
3 50 178 177
3 178 48 176
3 177 176 14
3 176 177 178
3 48 178 175
3 178 50 172
3 175 172 49
3 172 175 178
3 8 179 162
3 179 50 183
3 162 183 45
3 183 162 179
3 50 177 184
3 177 14 180
3 184 180 62
3 180 184 177
3 45 182 181
3 182 62 223
3 181 223 13
3 223 181 182
3 62 182 184
3 182 45 183
3 184 183 50
3 183 184 182
3 10 186 192
3 186 52 185
3 192 185 54
3 185 192 186
3 52 143 188
3 143 11 187
3 188 187 51
3 187 188 143
3 54 190 189
3 190 51 206
3 189 206 16
3 206 189 190
3 51 190 188
3 190 54 185
3 188 185 52
3 185 188 190
3 10 192 191
3 192 54 196
3 191 196 53
3 196 191 192
3 54 189 197
3 189 16 193
3 197 193 66
3 193 197 189
3 53 195 194
3 195 66 236
3 194 236 15
3 236 194 195
3 66 195 197
3 195 53 196
3 197 196 54
3 196 197 195
3 11 199 204
3 199 56 198
3 204 198 57
3 198 204 199
3 56 155 201
3 155 12 200
3 201 200 55
3 200 201 155
3 57 203 202
3 203 55 218
3 202 218 17
3 218 202 203
3 55 203 201
3 203 57 198
3 201 198 56
3 198 201 203
3 11 204 187
3 204 57 208
3 187 208 51
3 208 187 204
3 57 202 209
3 202 17 205
3 209 205 70
3 205 209 202
3 51 207 206
3 207 70 250
3 206 250 16
3 250 206 207
3 70 207 209
3 207 51 208
3 209 208 57
3 208 209 207
3 12 211 216
3 211 59 210
3 216 210 60
3 210 216 211
3 59 167 213
3 167 13 212
3 213 212 58
3 212 213 167
3 60 215 214
3 215 58 231
3 214 231 18
3 231 214 215
3 58 215 213
3 215 60 210
3 213 210 59
3 210 213 215
3 12 216 200
3 216 60 220
3 200 220 55
3 220 200 216
3 60 214 221
3 214 18 217
3 221 217 74
3 217 221 214
3 55 219 218
3 219 74 263
3 218 263 17
3 263 218 219
3 74 219 221
3 219 55 220
3 221 220 60
3 220 221 219
3 13 223 229
3 223 62 222
3 229 222 63
3 222 229 223
3 62 180 225
3 180 14 224
3 225 224 61
3 224 225 180
3 63 228 227
3 228 61 226
3 227 226 19
3 226 227 228
3 61 228 225
3 228 63 222
3 225 222 62
3 222 225 228
3 13 229 212
3 229 63 233
3 212 233 58
3 233 212 229
3 63 227 234
3 227 19 230
3 234 230 78
3 230 234 227
3 58 232 231
3 232 78 276
3 231 276 18
3 276 231 232
3 78 232 234
3 232 58 233
3 234 233 63
3 233 234 232
3 15 236 235
3 236 66 240
3 235 240 65
3 240 235 236
3 66 193 238
3 193 16 237
3 238 237 64
3 237 238 193
3 65 241 239
3 241 64 244
3 239 244 20
3 244 239 241
3 64 241 238
3 241 65 240
3 238 240 66
3 240 238 241
3 20 244 243
3 244 64 242
3 243 242 68
3 242 243 244
3 64 237 247
3 237 16 245
3 247 245 67
3 245 247 237
3 68 248 246
3 248 67 259
3 246 259 21
3 259 246 248
3 67 248 247
3 248 68 242
3 247 242 64
3 242 247 248
3 16 250 255
3 250 70 249
3 255 249 72
3 249 255 250
3 70 205 252
3 205 17 251
3 252 251 69
3 251 252 205
3 72 254 253
3 254 69 272
3 253 272 22
3 272 253 254
3 69 254 252
3 254 72 249
3 252 249 70
3 249 252 254
3 16 255 245
3 255 72 261
3 245 261 67
3 261 245 255
3 72 253 257
3 253 22 256
3 257 256 71
3 256 257 253
3 67 260 259
3 260 71 258
3 259 258 21
3 258 259 260
3 71 260 257
3 260 67 261
3 257 261 72
3 261 257 260
3 17 263 268
3 263 74 262
3 268 262 76
3 262 268 263
3 74 217 265
3 217 18 264
3 265 264 73
3 264 265 217
3 76 267 266
3 267 73 286
3 266 286 23
3 286 266 267
3 73 267 265
3 267 76 262
3 265 262 74
3 262 265 267
3 17 268 251
3 268 76 274
3 251 274 69
3 274 251 268
3 76 266 270
3 266 23 269
3 270 269 75
3 269 270 266
3 69 273 272
3 273 75 271
3 272 271 22
3 271 272 273
3 75 273 270
3 273 69 274
3 270 274 76
3 274 270 273
3 18 276 282
3 276 78 275
3 282 275 80
3 275 282 276
3 78 230 278
3 230 19 277
3 278 277 77
3 277 278 230
3 80 281 280
3 281 77 279
3 280 279 24
3 279 280 281
3 77 281 278
3 281 80 275
3 278 275 78
3 275 278 281
3 18 282 264
3 282 80 288
3 264 288 73
3 288 264 282
3 80 280 284
3 280 24 283
3 284 283 79
3 283 284 280
3 73 287 286
3 287 79 285
3 286 285 23
3 285 286 287
3 79 287 284
3 287 73 288
3 284 288 80
3 288 284 287
2 0 82
2 82 26
2 26 85
2 85 1
2 27 88
2 88 0
2 5 91
2 91 27
2 1 96
2 96 30
2 30 99
2 99 2
2 2 109
2 109 33
2 33 112
2 112 3
2 3 121
2 121 36
2 36 124
2 124 4
2 4 130
2 130 37
2 37 131
2 131 9
2 40 141
2 141 5
2 10 144
2 144 40
2 9 174
2 174 48
2 48 176
2 176 14
2 53 191
2 191 10
2 15 194
2 194 53
2 14 224
2 224 61
2 61 226
2 226 19
2 65 235
2 235 15
2 20 239
2 239 65
2 68 243
2 243 20
2 21 246
2 246 68
2 22 256
2 256 71
2 71 258
2 258 21
2 23 269
2 269 75
2 75 271
2 271 22
2 19 277
2 277 77
2 77 279
2 279 24
2 24 283
2 283 79
2 79 285
2 285 23

CELL_TYPES 576
5 5 5 5 5 5 5 5 5 5 5 5 5 5 5 5 5 5 5 5 5 5 5 5 5 5 5 5 5 5 5 5 5 5 5 5 5 5 5 5 5 5 5 5 5 5 5 5 5 5 5 5 5 5 5 5 5 5 5 5 5 5 5 5 5 5 5 5 5 5 5 5 5 5 5 5 5 5 5 5 5 5 5 5 5 5 5 5 5 5 5 5 5 5 5 5 5 5 5 5 5 5 5 5 5 5 5 5 5 5 5 5 5 5 5 5 5 5 5 5 5 5 5 5 5 5 5 5 5 5 5 5 5 5 5 5 5 5 5 5 5 5 5 5 5 5 5 5 5 5 5 5 5 5 5 5 5 5 5 5 5 5 5 5 5 5 5 5 5 5 5 5 5 5 5 5 5 5 5 5 5 5 5 5 5 5 5 5 5 5 5 5 5 5 5 5 5 5 5 5 5 5 5 5 5 5 5 5 5 5 5 5 5 5 5 5 5 5 5 5 5 5 5 5 5 5 5 5 5 5 5 5 5 5 5 5 5 5 5 5 5 5 5 5 5 5 5 5 5 5 5 5 5 5 5 5 5 5 5 5 5 5 5 5 5 5 5 5 5 5 5 5 5 5 5 5 5 5 5 5 5 5 5 5 5 5 5 5 5 5 5 5 5 5 5 5 5 5 5 5 5 5 5 5 5 5 5 5 5 5 5 5 5 5 5 5 5 5 5 5 5 5 5 5 5 5 5 5 5 5 5 5 5 5 5 5 5 5 5 5 5 5 5 5 5 5 5 5 5 5 5 5 5 5 5 5 5 5 5 5 5 5 5 5 5 5 5 5 5 5 5 5 5 5 5 5 5 5 5 5 5 5 5 5 5 5 5 5 5 5 5 5 5 5 5 5 5 5 5 5 5 5 5 5 5 5 5 5 5 5 5 5 5 5 5 5 5 5 5 5 5 5 5 5 5 5 5 5 5 5 5 5 5 5 5 5 5 5 5 5 5 5 5 5 5 5 5 5 5 5 5 5 5 5 5 5 5 5 5 5 5 5 5 5 5 5 5 5 5 5 5 5 5 5 5 5 5 5 5 5 5 5 5 5 5 5 5 5 5 5 5 5 5 5 5 5 5 5 5 5 5 5 5 5 5 5 5 5 5 5 5 5 3 3 3 3 3 3 3 3 3 3 3 3 3 3 3 3 3 3 3 3 3 3 3 3 3 3 3 3 3 3 3 3 3 3 3 3 3 3 3 3 3 3 3 3 3 3 3 3 3 3 3 3 3 3 3 3 3 3 3 3 3 3 3 3 
CELL_DATA 576
Scalars  Label int 1
LOOKUP_TABLE FreeFempp_table
0
0
0
0
0
0
0
0
0
0
0
0
0
0
0
0
0
0
0
0
0
0
0
0
0
0
0
0
0
0
0
0
0
0
0
0
0
0
0
0
0
0
0
0
0
0
0
0
0
0
0
0
0
0
0
0
0
0
0
0
0
0
0
0
0
0
0
0
0
0
0
0
0
0
0
0
0
0
0
0
0
0
0
0
0
0
0
0
0
0
0
0
0
0
0
0
0
0
0
0
0
0
0
0
0
0
0
0
0
0
0
0
0
0
0
0
0
0
0
0
0
0
0
0
0
0
0
0
0
0
0
0
0
0
0
0
0
0
0
0
0
0
0
0
0
0
0
0
0
0
0
0
0
0
0
0
0
0
0
0
0
0
0
0
0
0
0
0
0
0
0
0
0
0
0
0
0
0
0
0
0
0
0
0
0
0
0
0
0
0
0
0
0
0
0
0
0
0
0
0
0
0
0
0
0
0
0
0
0
0
0
0
0
0
0
0
0
0
0
0
0
0
0
0
0
0
0
0
0
0
0
0
0
0
0
0
0
0
0
0
0
0
0
0
0
0
0
0
0
0
0
0
0
0
0
0
0
0
0
0
0
0
0
0
0
0
0
0
0
0
0
0
0
0
0
0
0
0
0
0
0
0
0
0
0
0
0
0
0
0
0
0
0
0
0
0
0
0
0
0
0
0
0
0
0
0
0
0
0
0
0
0
0
0
0
0
0
0
0
0
0
0
0
0
0
0
0
0
0
0
0
0
0
0
0
0
0
0
0
0
0
0
0
0
0
0
0
0
0
0
0
0
0
0
0
0
0
0
0
0
0
0
0
0
0
0
0
0
0
0
0
0
0
0
0
0
0
0
0
0
0
0
0
0
0
0
0
0
0
0
0
0
0
0
0
0
0
0
0
0
0
0
0
0
0
0
0
0
0
0
0
0
0
0
0
0
0
0
0
0
0
0
0
0
0
0
0
0
0
0
0
0
0
0
0
0
0
0
0
0
0
0
0
0
0
0
0
0
0
0
0
0
0
0
0
0
0
0
0
0
0
0
0
0
0
0
0
0
0
0
0
0
0
0
0
0
0
0
0
0
0
0
0
0
0
0
0
0
0
0
0
0
0
0
0
0
0
0
0
0
0
0
0
0
0
0
0
0
0
0
0
0
1
1
1
1
4
4
4
4
1
1
1
1
1
1
1
1
1
1
1
1
2
2
2
2
4
4
4
4
2
2
2
2
4
4
4
4
2
2
2
2
4
4
4
4
3
3
3
3
3
3
3
3
3
3
3
3
2
2
2
2
3
3
3
3

LOOKUP_TABLE FreeFempp_table 5
1.00000000 0.00000000 0.00000000 1.00000000
1.00000000 1.00000000 0.00000000 1.00000000
1.00000000 0.00000000 1.00000000 1.00000000
0.00000000 1.00000000 0.00000000 1.00000000
0.00000000 1.00000000 1.00000000 1.00000000

FIELD FieldData 1
Pressure 1 576 float
1.30586833e-01 3.21588784e-01 3.19008350e-01 2.58523285e-01 5.00232279e-01 6.59652114e-01 6.54359043e-01 6.08065784e-01 4.87425685e-01 6.42764151e-01 6.24979079e-01 5.88606715e-01 6.01231337e-01 4.36817795e-01 4.41783279e-01 4.96218413e-01 6.53283894e-02 2.55617589e-01 6.45941198e-02 1.29538998e-01 4.27645504e-01 5.70313454e-01 4.14354742e-01 4.73938763e-01 6.32377788e-02 2.42472634e-01 6.12724163e-02 1.23722844e-01 3.04685235e-01 1.27243638e-01 3.13355684e-01 2.50250131e-01 7.93721914e-01 8.97289395e-01 8.90089512e-01 8.65035772e-01 9.66374576e-01 9.98322487e-01 9.90311921e-01 9.90311921e-01 9.41634119e-01 9.72764134e-01 9.45848048e-01 9.58620310e-01 9.79181170e-01 9.35217023e-01 9.45848048e-01 9.58620310e-01 7.50980675e-01 8.55313063e-01 7.42539883e-01 7.87353039e-01 9.15579379e-01 9.28827465e-01 8.87124181e-01 9.15579379e-01 7.26948082e-01 8.11329246e-01 7.04355359e-01 7.52001822e-01 8.50125551e-01 7.73401558e-01 8.74317586e-01 8.37353230e-01 9.91905451e-01 9.47370052e-01 9.39768314e-01 9.64822054e-01 8.66427720e-01 7.52189100e-01 7.46153474e-01 7.92446733e-01 8.44246030e-01 7.32932031e-01 7.12652087e-01 7.67087162e-01 7.83539951e-01 8.85778844e-01 8.95847857e-01 8.59475493e-01 9.96718645e-01 9.53977764e-01 9.85515893e-01 9.83946383e-01 8.67179275e-01 7.43246973e-01 8.40228319e-01 8.20886016e-01 9.64822054e-01 9.04920161e-01 9.34836447e-01 9.39768314e-01 8.97573769e-01 9.66511369e-01 9.23116088e-01 9.33946192e-01 6.59652114e-01 5.00232279e-01 6.54359043e-01 6.08065784e-01 3.21588784e-01 1.30586833e-01 3.19008350e-01 2.58523285e-01 6.42764151e-01 4.87425685e-01 6.24979079e-01 5.88606715e-01 4.36817795e-01 6.01231337e-01 4.41783279e-01 4.96218413e-01 5.70313454e-01 4.27645504e-01 4.14354742e-01 4.73938763e-01 2.55617589e-01 6.53283894e-02 6.45941198e-02 1.29538998e-01 2.42472634e-01 6.32377788e-02 6.12724163e-02 1.23722844e-01 1.27243638e-01 3.04685235e-01 3.13355684e-01 2.50250131e-01 1.19010538e-01 2.93080509e-01 2.78653264e-01 2.32359990e-01 4.55887586e-01 6.01175129e-01 5.71581542e-01 5.46527803e-01 4.06829983e-01 5.36483288e-01 4.96218413e-01 4.83446121e-01 5.17478764e-01 3.75968307e-01 3.97073537e-01 4.33445930e-01 5.87169714e-02 2.20009595e-01 5.55960499e-02 1.13152094e-01 3.51242274e-01 4.44757640e-01 3.23133588e-01 3.76296014e-01 5.19397035e-02 1.89091712e-01 4.77831550e-02 9.82329696e-02 2.41912782e-01 1.06203936e-01 2.61542410e-01 2.05540389e-01 7.23359883e-01 8.17746282e-01 7.77491689e-01 7.77491689e-01 8.80707145e-01 9.09822941e-01 8.65035772e-01 8.90089512e-01 7.85935163e-01 8.11917841e-01 7.50980675e-01 7.87353039e-01 8.42779517e-01 8.04939687e-01 8.50125551e-01 8.37353230e-01 6.74979270e-01 7.36166477e-01 6.39102817e-01 6.87751532e-01 7.52001822e-01 7.24343956e-01 6.91821754e-01 7.26948082e-01 5.97071409e-01 6.32713199e-01 5.49289882e-01 5.97071409e-01 6.74979270e-01 6.45519853e-01 7.29749441e-01 6.87751532e-01 9.03974771e-01 8.63387346e-01 8.20886016e-01 8.67179275e-01 7.89620459e-01 6.85508847e-01 6.51763797e-01 7.12248862e-01 7.04650164e-01 6.11741960e-01 5.65828621e-01 6.30039275e-01 6.74391448e-01 7.62388289e-01 8.05185497e-01 7.50750363e-01 8.95847857e-01 8.21087003e-01 8.48231792e-01 8.59475493e-01 7.12248862e-01 5.79619408e-01 6.55250132e-01 6.51763797e-01 7.92446733e-01 7.05699921e-01 7.29030073e-01 7.46153474e-01 7.12652087e-01 8.06698978e-01 7.70479083e-01 7.67087162e-01 5.55053532e-01 4.03267831e-01 3.83416474e-01 4.48885024e-01 2.35984772e-01 5.96329458e-02 5.66974394e-02 1.17182508e-01 2.10590690e-01 5.32159060e-02 4.92218733e-02 1.03656992e-01 1.10954024e-01 2.73240209e-01 2.88578719e-01 2.24368125e-01 5.91940939e-01 4.25025910e-01 5.60478091e-01 5.27730346e-01 2.55270213e-01 9.53616947e-02 2.34841838e-01 1.94785148e-01 5.23617566e-01 3.65297139e-01 4.81714308e-01 4.58148986e-01 3.32862943e-01 4.95324790e-01 3.59872580e-01 3.97073537e-01 8.93159732e-02 2.19953388e-01 1.95875719e-01 1.70821995e-01 3.42138112e-01 4.51174676e-01 4.01785880e-01 4.01785880e-01 2.64298081e-01 3.48527670e-01 2.91912973e-01 3.04685235e-01 3.54944736e-01 2.57881045e-01 2.91912973e-01 3.04685235e-01 4.31664251e-02 1.50907159e-01 3.81339788e-02 7.95388073e-02 2.21365601e-01 2.51491487e-01 1.82718277e-01 2.21365601e-01 3.27342823e-02 1.06923312e-01 2.70193368e-02 5.77880181e-02 1.42311275e-01 6.89956471e-02 1.69911668e-01 1.29538998e-01 5.42872846e-01 6.13708675e-01 5.46527803e-01 5.71581542e-01 6.60960078e-01 6.82811141e-01 6.08065784e-01 6.54359043e-01 5.10584712e-01 5.27464390e-01 4.41783279e-01 4.96218413e-01 5.78072309e-01 5.52117527e-01 6.24979079e-01 5.88606715e-01 4.96218413e-01 5.04945159e-01 4.38368082e-01 4.83446121e-01 4.73938763e-01 4.09585655e-01 3.91195714e-01 4.27645504e-01 3.76296014e-01 3.57772380e-01 3.10600013e-01 3.51242274e-01 3.97073537e-01 4.19363558e-01 4.74083513e-01 4.33445930e-01 6.78422153e-01 6.47961795e-01 5.77031255e-01 6.37516320e-01 5.92600584e-01 5.14466107e-01 4.58148986e-01 5.23617566e-01 4.57777709e-01 3.97419661e-01 3.32862943e-01 3.97073537e-01 4.62572962e-01 5.22931039e-01 5.91940939e-01 5.27730346e-01 6.58592343e-01 5.63193142e-01 5.81812084e-01 6.04157269e-01 4.48885024e-01 3.27750087e-01 3.70516002e-01 3.83416474e-01 4.99428630e-01 3.99043232e-01 4.12235409e-01 4.38943565e-01 4.19235528e-01 5.24073958e-01 5.00543654e-01 4.83446121e-01 4.16560978e-01 3.02647650e-01 2.69517690e-01 3.30002755e-01 1.77103728e-01 4.47538085e-02 3.98547389e-02 8.61480013e-02 1.36810765e-01 3.45718451e-02 2.89560053e-02 6.53283894e-02 7.61046633e-02 1.87418640e-01 2.12151811e-01 1.57716691e-01 4.35171872e-01 2.91530222e-01 3.84438485e-01 3.70961249e-01 1.60880536e-01 5.39229736e-02 1.32793054e-01 1.14587270e-01 3.30002755e-01 2.06559971e-01 2.72388905e-01 2.69517690e-01 1.95814997e-01 3.21788967e-01 2.33792111e-01 2.50250131e-01 2.30613053e-02 9.12602320e-02 1.69445109e-02 4.19982485e-02 1.55952081e-01 2.14650780e-01 1.14587270e-01 1.60880536e-01 1.06645329e-02 4.22026329e-02 4.28184913e-03 1.70541331e-02 7.30642974e-02 2.96690539e-02 1.03426702e-01 6.70543164e-02 4.27496992e-03 4.19982485e-02 1.05277272e-02 1.69445109e-02 1.13651730e-01 2.12151811e-01 1.49871588e-01 1.57716691e-01 1.63759086e-02 8.61480013e-02 2.15947740e-02 3.98547389e-02 9.92636979e-02 2.89560053e-02 7.21189082e-02 6.53283894e-02 2.79738337e-01 3.16239536e-01 2.32359990e-01 2.78653264e-01 3.40587825e-01 3.51847529e-01 2.58523285e-01 3.19008350e-01 1.57502368e-01 1.62709326e-01 6.53283894e-02 1.29538998e-01 2.25358844e-01 2.15240493e-01 3.04685235e-01 2.50250131e-01 2.41912782e-01 1.96850568e-01 1.70895785e-01 2.05540389e-01 1.23722844e-01 3.24716233e-02 3.10136843e-02 6.32377788e-02 9.82329696e-02 2.83639058e-02 2.46241204e-02 5.19397035e-02 5.87169714e-02 1.29362971e-01 1.46242678e-01 1.13152094e-01 3.49585921e-01 3.33889902e-01 2.45328754e-01 3.10797334e-01 3.05362701e-01 2.65100569e-01 1.94785148e-01 2.55270213e-01 1.41212761e-01 1.22593835e-01 4.92218733e-02 1.03656992e-01 1.80331960e-01 2.03862265e-01 2.88578719e-01 2.24368125e-01 3.21072161e-01 2.19558269e-01 2.26816773e-01 2.56861538e-01 1.17182508e-01 2.59837639e-02 2.93742139e-02 5.66974394e-02 1.30377039e-01 3.16358283e-02 3.26816924e-02 6.49084747e-02 6.19941577e-02 1.61663458e-01 1.54404953e-01 1.26204759e-01 2.14650780e-01 1.55952081e-01 1.14587270e-01 1.60880536e-01 9.12602320e-02 2.30613053e-02 1.69445109e-02 4.19982485e-02 4.22026329e-02 1.06645329e-02 4.28184913e-03 1.70541331e-02 2.96690539e-02 7.30642974e-02 1.03426702e-01 6.70543164e-02 2.12151811e-01 1.13651730e-01 1.49871588e-01 1.57716691e-01 4.19982485e-02 4.27496992e-03 1.05277272e-02 1.69445109e-02 8.61480013e-02 1.63759086e-02 2.15947740e-02 3.98547389e-02 2.89560053e-02 9.92636979e-02 7.21189082e-02 6.53283894e-02 1.30586833e-01 3.21588784e-01 5.00232279e-01 6.59652114e-01 6.45941198e-02 6.53283894e-02 6.12724163e-02 6.32377788e-02 7.93721914e-01 8.97289395e-01 9.66374576e-01 9.98322487e-01 9.91905451e-01 9.47370052e-01 8.66427720e-01 7.52189100e-01 6.59652114e-01 5.00232279e-01 3.21588784e-01 1.30586833e-01 6.53283894e-02 6.45941198e-02 6.32377788e-02 6.12724163e-02 5.55960499e-02 5.87169714e-02 4.77831550e-02 5.19397035e-02 5.96329458e-02 5.66974394e-02 5.32159060e-02 4.92218733e-02 3.81339788e-02 4.31664251e-02 2.70193368e-02 3.27342823e-02 4.47538085e-02 3.98547389e-02 3.45718451e-02 2.89560053e-02 1.69445109e-02 2.30613053e-02 4.28184913e-03 1.06645329e-02 1.05277272e-02 4.27496992e-03 2.15947740e-02 1.63759086e-02 3.24716233e-02 3.10136843e-02 2.83639058e-02 2.46241204e-02 2.59837639e-02 2.93742139e-02 3.16358283e-02 3.26816924e-02 2.30613053e-02 1.69445109e-02 1.06645329e-02 4.28184913e-03 4.27496992e-03 1.05277272e-02 1.63759086e-02 2.15947740e-02 
POINT_DATA 289
FIELD FieldData 2
Velocity 3 289 float