# vtk DataFile Version 2.0
./pics/TrueSolution_1_5.vtk, Created by Freefem++ 
ASCII
DATASET UNSTRUCTURED_GRID
POINTS 289 float
0 0 0
0.25 0 0
0.5 0 0
0.75 0 0
1 0 0
0 0.25 0
0.25 0.25 0
0.5 0.25 0
0.75 0.25 0
1 0.25 0
0 0.5 0
0.25 0.5 0
0.5 0.5 0
0.75 0.5 0
1 0.5 0
0 0.75 0
0.25 0.75 0
0.5 0.75 0
0.75 0.75 0
1 0.75 0
0 1 0
0.25 1 0
0.5 1 0
0.75 1 0
1 1 0
0.25 0.125 0
0.125 0 0
0 0.125 0
0.125 0.125 0
0.5 0.125 0
0.375 0 0
0.375 0.125 0
0.75 0.125 0
0.625 0 0
0.625 0.125 0
0.875 0.125 0
0.875 0 0
1 0.125 0
0.25 0.375 0
0.125 0.25 0
0 0.375 0
0.125 0.375 0
0.5 0.375 0
0.375 0.25 0
0.375 0.375 0
0.75 0.375 0
0.625 0.25 0
0.625 0.375 0
1 0.375 0
0.875 0.25 0
0.875 0.375 0
0.25 0.625 0
0.125 0.5 0
0 0.625 0
0.125 0.625 0
0.5 0.625 0
0.375 0.5 0
0.375 0.625 0
0.75 0.625 0
0.625 0.5 0
0.625 0.625 0
1 0.625 0
0.875 0.5 0
0.875 0.625 0
0.125 0.875 0
0 0.875 0
0.125 0.75 0
0.25 0.875 0
0.125 1 0
0.5 0.875 0
0.375 0.75 0
0.375 1 0
0.375 0.875 0
0.75 0.875 0
0.625 0.75 0
0.625 1 0
0.625 0.875 0
1 0.875 0
0.875 0.75 0
0.875 1 0
0.875 0.875 0
0.125 0.0625 0
0.0625 0 0
0.25 0.0625 0
0.1875 0.0625 0
0.1875 0 0
0.1875 0.1875 0
0.1875 0.125 0
0 0.0625 0
0.0625 0.0625 0
0.1875 0.25 0
0 0.1875 0
0.0625 0.1875 0
0.0625 0.125 0
0.125 0.1875 0
0.375 0.0625 0
0.3125 0 0
0.5 0.0625 0
0.4375 0.0625 0
0.4375 0 0
0.4375 0.1875 0
0.4375 0.125 0
0.3125 0.0625 0
0.4375 0.25 0
0.25 0.1875 0
0.3125 0.1875 0
0.3125 0.125 0
0.375 0.1875 0
0.625 0.0625 0
0.5625 0 0
0.75 0.0625 0
0.6875 0.0625 0
0.6875 0 0
0.6875 0.1875 0
0.6875 0.125 0
0.5625 0.0625 0
0.6875 0.25 0
0.5 0.1875 0
0.5625 0.1875 0
0.5625 0.125 0
0.625 0.1875 0
0.8125 0 0
0.9375 0.0625 0
0.875 0.0625 0
0.9375 0 0
0.75 0.1875 0
0.8125 0.125 0
0.8125 0.0625 0
0.875 0.1875 0
0.8125 0.1875 0
1 0.0625 0
1 0.1875 0
0.9375 0.25 0
0.9375 0.125 0
0.9375 0.1875 0
0.125 0.3125 0
0.0625 0.25 0
0.25 0.3125 0
0.1875 0.3125 0
0.1875 0.4375 0
0.1875 0.375 0
0 0.3125 0
0.0625 0.3125 0
0.1875 0.5 0
0 0.4375 0
0.0625 0.4375 0
0.0625 0.375 0
0.125 0.4375 0
0.375 0.3125 0
0.3125 0.25 0
0.5 0.3125 0
0.4375 0.3125 0
0.4375 0.4375 0
0.4375 0.375 0
0.3125 0.3125 0
0.4375 0.5 0
0.25 0.4375 0
0.3125 0.4375 0
0.3125 0.375 0
0.375 0.4375 0
0.625 0.3125 0
0.5625 0.25 0
0.75 0.3125 0
0.6875 0.3125 0
0.6875 0.4375 0
0.6875 0.375 0
0.5625 0.3125 0
0.6875 0.5 0
0.5 0.4375 0
0.5625 0.4375 0
0.5625 0.375 0
0.625 0.4375 0
0.875 0.3125 0
0.8125 0.25 0
1 0.3125 0
0.9375 0.3125 0
1 0.4375 0
0.9375 0.4375 0
0.9375 0.375 0
0.8125 0.3125 0
0.9375 0.5 0
0.75 0.4375 0
0.8125 0.4375 0
0.8125 0.375 0
0.875 0.4375 0
0.125 0.5625 0
0.0625 0.5 0
0.25 0.5625 0
0.1875 0.5625 0
0.1875 0.6875 0
0.1875 0.625 0
0 0.5625 0
0.0625 0.5625 0
0.1875 0.75 0
0 0.6875 0
0.0625 0.6875 0
0.0625 0.625 0
0.125 0.6875 0
0.375 0.5625 0
0.3125 0.5 0
0.5 0.5625 0
0.4375 0.5625 0
0.4375 0.6875 0
0.4375 0.625 0
0.3125 0.5625 0
0.4375 0.75 0
0.25 0.6875 0
0.3125 0.6875 0
0.3125 0.625 0
0.375 0.6875 0
0.625 0.5625 0
0.5625 0.5 0
0.75 0.5625 0
0.6875 0.5625 0
0.6875 0.6875 0
0.6875 0.625 0
0.5625 0.5625 0
0.6875 0.75 0
0.5 0.6875 0
0.5625 0.6875 0
0.5625 0.625 0
0.625 0.6875 0
0.875 0.5625 0
0.8125 0.5 0
1 0.5625 0
0.9375 0.5625 0
1 0.6875 0
0.9375 0.6875 0
0.9375 0.625 0
0.8125 0.5625 0
0.9375 0.75 0
0.75 0.6875 0
0.8125 0.6875 0
0.8125 0.625 0
0.875 0.6875 0
0 0.8125 0
0.0625 0.75 0
0.1875 0.8125 0
0.125 0.8125 0
0 0.9375 0
0.0625 0.8125 0
0.0625 0.875 0
0.125 0.9375 0
0.0625 1 0
0.0625 0.9375 0
0.25 0.8125 0
0.1875 1 0
0.1875 0.875 0
0.1875 0.9375 0
0.375 0.8125 0
0.3125 0.75 0
0.5 0.8125 0
0.4375 0.8125 0
0.4375 0.9375 0
0.4375 0.875 0
0.3125 0.8125 0
0.4375 1 0
0.375 0.9375 0
0.3125 1 0
0.25 0.9375 0
0.3125 0.9375 0
0.3125 0.875 0
0.625 0.8125 0
0.5625 0.75 0
0.75 0.8125 0
0.6875 0.8125 0
0.6875 0.9375 0
0.6875 0.875 0
0.5625 0.8125 0
0.6875 1 0
0.625 0.9375 0
0.5625 1 0
0.5 0.9375 0
0.5625 0.9375 0
0.5625 0.875 0
0.875 0.8125 0
0.8125 0.75 0
1 0.8125 0
0.9375 0.8125 0
1 0.9375 0
0.9375 0.9375 0
0.9375 0.875 0
0.8125 0.8125 0
0.9375 1 0
0.875 0.9375 0
0.8125 1 0
0.75 0.9375 0
0.8125 0.9375 0
0.8125 0.875 0

CELLS 576 2240
3 0 82 89
3 82 26 81
3 89 81 28
3 81 89 82
3 26 85 84
3 85 1 83
3 84 83 25
3 83 84 85
3 28 87 86
3 87 25 104
3 86 104 6
3 104 86 87
3 25 87 84
3 87 28 81
3 84 81 26
3 81 84 87
3 0 89 88
3 89 28 93
3 88 93 27
3 93 88 89
3 28 86 94
3 86 6 90
3 94 90 39
3 90 94 86
3 27 92 91
3 92 39 136
3 91 136 5
3 136 91 92
3 39 92 94
3 92 27 93
3 94 93 28
3 93 94 92
3 1 96 102
3 96 30 95
3 102 95 31
3 95 102 96
3 30 99 98
3 99 2 97
3 98 97 29
3 97 98 99
3 31 101 100
3 101 29 117
3 100 117 7
3 117 100 101
3 29 101 98
3 101 31 95
3 98 95 30
3 95 98 101
3 1 102 83
3 102 31 106
3 83 106 25
3 106 83 102
3 31 100 107
3 100 7 103
3 107 103 43
3 103 107 100
3 25 105 104
3 105 43 149
3 104 149 6
3 149 104 105
3 43 105 107
3 105 25 106
3 107 106 31
3 106 107 105
3 2 109 115
3 109 33 108
3 115 108 34
3 108 115 109
3 33 112 111
3 112 3 110
3 111 110 32
3 110 111 112
3 34 114 113
3 114 32 125
3 113 125 8
3 125 113 114
3 32 114 111
3 114 34 108
3 111 108 33
3 108 111 114
3 2 115 97
3 115 34 119
3 97 119 29
3 119 97 115
3 34 113 120
3 113 8 116
3 120 116 46
3 116 120 113
3 29 118 117
3 118 46 161
3 117 161 7
3 161 117 118
3 46 118 120
3 118 29 119
3 120 119 34
3 119 120 118
3 3 121 110
3 121 36 127
3 110 127 32
3 127 110 121
3 36 124 123
3 124 4 122
3 123 122 35
3 122 123 124
3 32 126 125
3 126 35 129
3 125 129 8
3 129 125 126
3 35 126 123
3 126 32 127
3 123 127 36
3 127 123 126
3 8 129 173
3 129 35 128
3 173 128 49
3 128 173 129
3 35 122 133
3 122 4 130
3 133 130 37
3 130 133 122
3 49 134 132
3 134 37 131
3 132 131 9
3 131 132 134
3 37 134 133
3 134 49 128
3 133 128 35
3 128 133 134
3 5 136 142
3 136 39 135
3 142 135 41
3 135 142 136
3 39 90 138
3 90 6 137
3 138 137 38
3 137 138 90
3 41 140 139
3 140 38 156
3 139 156 11
3 156 139 140
3 38 140 138
3 140 41 135
3 138 135 39
3 135 138 140
3 5 142 141
3 142 41 146
3 141 146 40
3 146 141 142
3 41 139 147
3 139 11 143
3 147 143 52
3 143 147 139
3 40 145 144
3 145 52 186
3 144 186 10
3 186 144 145
3 52 145 147
3 145 40 146
3 147 146 41
3 146 147 145
3 6 149 154
3 149 43 148
3 154 148 44
3 148 154 149
3 43 103 151
3 103 7 150
3 151 150 42
3 150 151 103
3 44 153 152
3 153 42 168
3 152 168 12
3 168 152 153
3 42 153 151
3 153 44 148
3 151 148 43
3 148 151 153
3 6 154 137
3 154 44 158
3 137 158 38
3 158 137 154
3 44 152 159
3 152 12 155
3 159 155 56
3 155 159 152
3 38 157 156
3 157 56 199
3 156 199 11
3 199 156 157
3 56 157 159
3 157 38 158
3 159 158 44
3 158 159 157
3 7 161 166
3 161 46 160
3 166 160 47
3 160 166 161
3 46 116 163
3 116 8 162
3 163 162 45
3 162 163 116
3 47 165 164
3 165 45 181
3 164 181 13
3 181 164 165
3 45 165 163
3 165 47 160
3 163 160 46
3 160 163 165
3 7 166 150
3 166 47 170
3 150 170 42
3 170 150 166
3 47 164 171
3 164 13 167
3 171 167 59
3 167 171 164
3 42 169 168
3 169 59 211
3 168 211 12
3 211 168 169
3 59 169 171
3 169 42 170
3 171 170 47
3 170 171 169
3 8 173 179
3 173 49 172
3 179 172 50
3 172 179 173
3 49 132 175
3 132 9 174
3 175 174 48
3 174 175 132
3 50 178 177
3 178 48 176
3 177 176 14
3 176 177 178
3 48 178 175
3 178 50 172
3 175 172 49
3 172 175 178
3 8 179 162
3 179 50 183
3 162 183 45
3 183 162 179
3 50 177 184
3 177 14 180
3 184 180 62
3 180 184 177
3 45 182 181
3 182 62 223
3 181 223 13
3 223 181 182
3 62 182 184
3 182 45 183
3 184 183 50
3 183 184 182
3 10 186 192
3 186 52 185
3 192 185 54
3 185 192 186
3 52 143 188
3 143 11 187
3 188 187 51
3 187 188 143
3 54 190 189
3 190 51 206
3 189 206 16
3 206 189 190
3 51 190 188
3 190 54 185
3 188 185 52
3 185 188 190
3 10 192 191
3 192 54 196
3 191 196 53
3 196 191 192
3 54 189 197
3 189 16 193
3 197 193 66
3 193 197 189
3 53 195 194
3 195 66 236
3 194 236 15
3 236 194 195
3 66 195 197
3 195 53 196
3 197 196 54
3 196 197 195
3 11 199 204
3 199 56 198
3 204 198 57
3 198 204 199
3 56 155 201
3 155 12 200
3 201 200 55
3 200 201 155
3 57 203 202
3 203 55 218
3 202 218 17
3 218 202 203
3 55 203 201
3 203 57 198
3 201 198 56
3 198 201 203
3 11 204 187
3 204 57 208
3 187 208 51
3 208 187 204
3 57 202 209
3 202 17 205
3 209 205 70
3 205 209 202
3 51 207 206
3 207 70 250
3 206 250 16
3 250 206 207
3 70 207 209
3 207 51 208
3 209 208 57
3 208 209 207
3 12 211 216
3 211 59 210
3 216 210 60
3 210 216 211
3 59 167 213
3 167 13 212
3 213 212 58
3 212 213 167
3 60 215 214
3 215 58 231
3 214 231 18
3 231 214 215
3 58 215 213
3 215 60 210
3 213 210 59
3 210 213 215
3 12 216 200
3 216 60 220
3 200 220 55
3 220 200 216
3 60 214 221
3 214 18 217
3 221 217 74
3 217 221 214
3 55 219 218
3 219 74 263
3 218 263 17
3 263 218 219
3 74 219 221
3 219 55 220
3 221 220 60
3 220 221 219
3 13 223 229
3 223 62 222
3 229 222 63
3 222 229 223
3 62 180 225
3 180 14 224
3 225 224 61
3 224 225 180
3 63 228 227
3 228 61 226
3 227 226 19
3 226 227 228
3 61 228 225
3 228 63 222
3 225 222 62
3 222 225 228
3 13 229 212
3 229 63 233
3 212 233 58
3 233 212 229
3 63 227 234
3 227 19 230
3 234 230 78
3 230 234 227
3 58 232 231
3 232 78 276
3 231 276 18
3 276 231 232
3 78 232 234
3 232 58 233
3 234 233 63
3 233 234 232
3 15 236 235
3 236 66 240
3 235 240 65
3 240 235 236
3 66 193 238
3 193 16 237
3 238 237 64
3 237 238 193
3 65 241 239
3 241 64 244
3 239 244 20
3 244 239 241
3 64 241 238
3 241 65 240
3 238 240 66
3 240 238 241
3 20 244 243
3 244 64 242
3 243 242 68
3 242 243 244
3 64 237 247
3 237 16 245
3 247 245 67
3 245 247 237
3 68 248 246
3 248 67 259
3 246 259 21
3 259 246 248
3 67 248 247
3 248 68 242
3 247 242 64
3 242 247 248
3 16 250 255
3 250 70 249
3 255 249 72
3 249 255 250
3 70 205 252
3 205 17 251
3 252 251 69
3 251 252 205
3 72 254 253
3 254 69 272
3 253 272 22
3 272 253 254
3 69 254 252
3 254 72 249
3 252 249 70
3 249 252 254
3 16 255 245
3 255 72 261
3 245 261 67
3 261 245 255
3 72 253 257
3 253 22 256
3 257 256 71
3 256 257 253
3 67 260 259
3 260 71 258
3 259 258 21
3 258 259 260
3 71 260 257
3 260 67 261
3 257 261 72
3 261 257 260
3 17 263 268
3 263 74 262
3 268 262 76
3 262 268 263
3 74 217 265
3 217 18 264
3 265 264 73
3 264 265 217
3 76 267 266
3 267 73 286
3 266 286 23
3 286 266 267
3 73 267 265
3 267 76 262
3 265 262 74
3 262 265 267
3 17 268 251
3 268 76 274
3 251 274 69
3 274 251 268
3 76 266 270
3 266 23 269
3 270 269 75
3 269 270 266
3 69 273 272
3 273 75 271
3 272 271 22
3 271 272 273
3 75 273 270
3 273 69 274
3 270 274 76
3 274 270 273
3 18 276 282
3 276 78 275
3 282 275 80
3 275 282 276
3 78 230 278
3 230 19 277
3 278 277 77
3 277 278 230
3 80 281 280
3 281 77 279
3 280 279 24
3 279 280 281
3 77 281 278
3 281 80 275
3 278 275 78
3 275 278 281
3 18 282 264
3 282 80 288
3 264 288 73
3 288 264 282
3 80 280 284
3 280 24 283
3 284 283 79
3 283 284 280
3 73 287 286
3 287 79 285
3 286 285 23
3 285 286 287
3 79 287 284
3 287 73 288
3 284 288 80
3 288 284 287
2 0 82
2 82 26
2 26 85
2 85 1
2 27 88
2 88 0
2 5 91
2 91 27
2 1 96
2 96 30
2 30 99
2 99 2
2 2 109
2 109 33
2 33 112
2 112 3
2 3 121
2 121 36
2 36 124
2 124 4
2 4 130
2 130 37
2 37 131
2 131 9
2 40 141
2 141 5
2 10 144
2 144 40
2 9 174
2 174 48
2 48 176
2 176 14
2 53 191
2 191 10
2 15 194
2 194 53
2 14 224
2 224 61
2 61 226
2 226 19
2 65 235
2 235 15
2 20 239
2 239 65
2 68 243
2 243 20
2 21 246
2 246 68
2 22 256
2 256 71
2 71 258
2 258 21
2 23 269
2 269 75
2 75 271
2 271 22
2 19 277
2 277 77
2 77 279
2 279 24
2 24 283
2 283 79
2 79 285
2 285 23

CELL_TYPES 576
5 5 5 5 5 5 5 5 5 5 5 5 5 5 5 5 5 5 5 5 5 5 5 5 5 5 5 5 5 5 5 5 5 5 5 5 5 5 5 5 5 5 5 5 5 5 5 5 5 5 5 5 5 5 5 5 5 5 5 5 5 5 5 5 5 5 5 5 5 5 5 5 5 5 5 5 5 5 5 5 5 5 5 5 5 5 5 5 5 5 5 5 5 5 5 5 5 5 5 5 5 5 5 5 5 5 5 5 5 5 5 5 5 5 5 5 5 5 5 5 5 5 5 5 5 5 5 5 5 5 5 5 5 5 5 5 5 5 5 5 5 5 5 5 5 5 5 5 5 5 5 5 5 5 5 5 5 5 5 5 5 5 5 5 5 5 5 5 5 5 5 5 5 5 5 5 5 5 5 5 5 5 5 5 5 5 5 5 5 5 5 5 5 5 5 5 5 5 5 5 5 5 5 5 5 5 5 5 5 5 5 5 5 5 5 5 5 5 5 5 5 5 5 5 5 5 5 5 5 5 5 5 5 5 5 5 5 5 5 5 5 5 5 5 5 5 5 5 5 5 5 5 5 5 5 5 5 5 5 5 5 5 5 5 5 5 5 5 5 5 5 5 5 5 5 5 5 5 5 5 5 5 5 5 5 5 5 5 5 5 5 5 5 5 5 5 5 5 5 5 5 5 5 5 5 5 5 5 5 5 5 5 5 5 5 5 5 5 5 5 5 5 5 5 5 5 5 5 5 5 5 5 5 5 5 5 5 5 5 5 5 5 5 5 5 5 5 5 5 5 5 5 5 5 5 5 5 5 5 5 5 5 5 5 5 5 5 5 5 5 5 5 5 5 5 5 5 5 5 5 5 5 5 5 5 5 5 5 5 5 5 5 5 5 5 5 5 5 5 5 5 5 5 5 5 5 5 5 5 5 5 5 5 5 5 5 5 5 5 5 5 5 5 5 5 5 5 5 5 5 5 5 5 5 5 5 5 5 5 5 5 5 5 5 5 5 5 5 5 5 5 5 5 5 5 5 5 5 5 5 5 5 5 5 5 5 5 5 5 5 5 5 5 5 5 5 5 5 5 5 5 5 5 5 5 5 5 5 5 5 5 5 5 5 5 5 5 5 5 5 5 5 5 5 5 5 5 5 5 5 5 5 3 3 3 3 3 3 3 3 3 3 3 3 3 3 3 3 3 3 3 3 3 3 3 3 3 3 3 3 3 3 3 3 3 3 3 3 3 3 3 3 3 3 3 3 3 3 3 3 3 3 3 3 3 3 3 3 3 3 3 3 3 3 3 3 
CELL_DATA 576
Scalars  Label int 1
LOOKUP_TABLE FreeFempp_table
0
0
0
0
0
0
0
0
0
0
0
0
0
0
0
0
0
0
0
0
0
0
0
0
0
0
0
0
0
0
0
0
0
0
0
0
0
0
0
0
0
0
0
0
0
0
0
0
0
0
0
0
0
0
0
0
0
0
0
0
0
0
0
0
0
0
0
0
0
0
0
0
0
0
0
0
0
0
0
0
0
0
0
0
0
0
0
0
0
0
0
0
0
0
0
0
0
0
0
0
0
0
0
0
0
0
0
0
0
0
0
0
0
0
0
0
0
0
0
0
0
0
0
0
0
0
0
0
0
0
0
0
0
0
0
0
0
0
0
0
0
0
0
0
0
0
0
0
0
0
0
0
0
0
0
0
0
0
0
0
0
0
0
0
0
0
0
0
0
0
0
0
0
0
0
0
0
0
0
0
0
0
0
0
0
0
0
0
0
0
0
0
0
0
0
0
0
0
0
0
0
0
0
0
0
0
0
0
0
0
0
0
0
0
0
0
0
0
0
0
0
0
0
0
0
0
0
0
0
0
0
0
0
0
0
0
0
0
0
0
0
0
0
0
0
0
0
0
0
0
0
0
0
0
0
0
0
0
0
0
0
0
0
0
0
0
0
0
0
0
0
0
0
0
0
0
0
0
0
0
0
0
0
0
0
0
0
0
0
0
0
0
0
0
0
0
0
0
0
0
0
0
0
0
0
0
0
0
0
0
0
0
0
0
0
0
0
0
0
0
0
0
0
0
0
0
0
0
0
0
0
0
0
0
0
0
0
0
0
0
0
0
0
0
0
0
0
0
0
0
0
0
0
0
0
0
0
0
0
0
0
0
0
0
0
0
0
0
0
0
0
0
0
0
0
0
0
0
0
0
0
0
0
0
0
0
0
0
0
0
0
0
0
0
0
0
0
0
0
0
0
0
0
0
0
0
0
0
0
0
0
0
0
0
0
0
0
0
0
0
0
0
0
0
0
0
0
0
0
0
0
0
0
0
0
0
0
0
0
0
0
0
0
0
0
0
0
0
0
0
0
0
0
0
0
0
0
0
0
0
0
0
0
0
0
0
0
0
0
0
0
0
0
0
0
0
0
0
0
0
0
0
0
0
0
0
0
0
0
0
0
0
0
0
0
0
0
0
0
0
0
0
0
0
0
0
0
0
0
0
0
0
1
1
1
1
4
4
4
4
1
1
1
1
1
1
1
1
1
1
1
1
2
2
2
2
4
4
4
4
2
2
2
2
4
4
4
4
2
2
2
2
4
4
4
4
3
3
3
3
3
3
3
3
3
3
3
3
2
2
2
2
3
3
3
3

LOOKUP_TABLE FreeFempp_table 5
1.00000000 0.00000000 0.00000000 1.00000000
1.00000000 1.00000000 0.00000000 1.00000000
1.00000000 0.00000000 1.00000000 1.00000000
0.00000000 1.00000000 0.00000000 1.00000000
0.00000000 1.00000000 1.00000000 1.00000000

FIELD FieldData 1
Pressure 1 576 float
1.31110221e-01 3.22877735e-01 3.20286930e-01 2.59559453e-01 5.02237201e-01 6.62295997e-01 6.56981707e-01 6.10502899e-01 4.89379287e-01 6.45340383e-01 6.27484024e-01 5.90965867e-01 6.03641093e-01 4.38568562e-01 4.43553954e-01 4.98207241e-01 6.55902252e-02 2.56642103e-01 6.48530200e-02 1.30058184e-01 4.29359496e-01 5.72599292e-01 4.16015506e-01 4.75838304e-01 6.34912327e-02 2.43444458e-01 6.15179986e-02 1.24218725e-01 3.05906415e-01 1.27753630e-01 3.14611614e-01 2.51253128e-01 7.96903133e-01 9.00885701e-01 8.93657029e-01 8.68502855e-01 9.70247805e-01 1.00232375e+00 9.94281113e-01 9.94281113e-01 9.45408165e-01 9.76662934e-01 9.49639022e-01 9.62462485e-01 9.83105719e-01 9.38965380e-01 9.49639022e-01 9.62462485e-01 7.53990591e-01 8.58741164e-01 7.45516002e-01 7.90508747e-01 9.19249058e-01 9.32550251e-01 8.90679777e-01 9.19249058e-01 7.29861677e-01 8.14581037e-01 7.07178414e-01 7.55015850e-01 8.53532851e-01 7.76501358e-01 8.77821863e-01 8.40709388e-01 9.95881021e-01 9.51167107e-01 9.43534911e-01 9.68689084e-01 8.69900346e-01 7.55203843e-01 7.49144077e-01 7.95622885e-01 8.47629786e-01 7.35869646e-01 7.15508401e-01 7.70161688e-01 7.86680341e-01 8.89329076e-01 8.99438441e-01 8.62920284e-01 1.00071347e+00 9.57801342e-01 9.89465833e-01 9.87890065e-01 8.70654941e-01 7.46225893e-01 8.43595982e-01 8.24176133e-01 9.68689084e-01 9.08547103e-01 9.38583255e-01 9.43534911e-01 9.01171267e-01 9.70385134e-01 9.26815987e-01 9.37689424e-01 6.62295997e-01 5.02237201e-01 6.56981707e-01 6.10502899e-01 3.22877735e-01 1.31110221e-01 3.20286930e-01 2.59559453e-01 6.45340383e-01 4.89379287e-01 6.27484024e-01 5.90965867e-01 4.38568562e-01 6.03641093e-01 4.43553954e-01 4.98207241e-01 5.72599292e-01 4.29359496e-01 4.16015506e-01 4.75838304e-01 2.56642103e-01 6.55902252e-02 6.48530200e-02 1.30058184e-01 2.43444458e-01 6.34912327e-02 6.15179986e-02 1.24218725e-01 1.27753630e-01 3.05906415e-01 3.14611614e-01 2.51253128e-01 1.19487531e-01 2.94255197e-01 2.79770106e-01 2.33291298e-01 4.57714766e-01 6.03584647e-01 5.73872447e-01 5.48718274e-01 4.08460557e-01 5.38633525e-01 4.98207241e-01 4.85383779e-01 5.19552827e-01 3.77475172e-01 3.98665011e-01 4.35183197e-01 5.89523092e-02 2.20891401e-01 5.58188781e-02 1.13605611e-01 3.52650046e-01 4.46540236e-01 3.24428707e-01 3.77804220e-01 5.21478802e-02 1.89849600e-01 4.79746684e-02 9.86266881e-02 2.42882371e-01 1.06629603e-01 2.62590677e-01 2.06364200e-01 7.26259112e-01 8.21023822e-01 7.80607879e-01 7.80607879e-01 8.84237051e-01 9.13469553e-01 8.68502855e-01 8.93657029e-01 7.89085209e-01 8.15172017e-01 7.53990591e-01 7.90508747e-01 8.46157372e-01 8.08165848e-01 8.53532851e-01 8.40709388e-01 6.77684605e-01 7.39117026e-01 6.41664326e-01 6.90508068e-01 7.55015850e-01 7.27247119e-01 6.94594562e-01 7.29861677e-01 5.99464476e-01 6.35249138e-01 5.51491439e-01 5.99464476e-01 6.77684605e-01 6.48107052e-01 7.32674241e-01 6.90508068e-01 9.07597899e-01 8.66847813e-01 8.24176133e-01 8.70654941e-01 7.92785227e-01 6.88256383e-01 6.54376090e-01 7.15103567e-01 7.07474411e-01 6.14193797e-01 5.68096519e-01 6.32564425e-01 6.77094400e-01 7.65443981e-01 8.08412671e-01 7.53759384e-01 8.99438441e-01 8.24377894e-01 8.51631522e-01 8.62920284e-01 7.15103567e-01 5.81942558e-01 6.57876372e-01 6.54376090e-01 7.95622885e-01 7.08528340e-01 7.31952012e-01 7.49144077e-01 7.15508401e-01 8.09932232e-01 7.73567200e-01 7.70161688e-01 5.57278216e-01 4.04884130e-01 3.84953201e-01 4.50684160e-01 2.36930609e-01 5.98719567e-02 5.69246858e-02 1.17652178e-01 2.11434737e-01 5.34291975e-02 4.94191535e-02 1.04072452e-01 1.11398734e-01 2.74335355e-01 2.89735347e-01 2.25267395e-01 5.94313443e-01 4.26729411e-01 5.62724531e-01 5.29845476e-01 2.56293356e-01 9.57439020e-02 2.35783085e-01 1.95565850e-01 5.25716245e-01 3.66761267e-01 4.83645022e-01 4.59985256e-01 3.34197044e-01 4.97310042e-01 3.61314952e-01 3.98665011e-01 8.96739513e-02 2.20834956e-01 1.96660802e-01 1.71506643e-01 3.43509406e-01 4.52982992e-01 4.03396249e-01 4.03396249e-01 2.65357405e-01 3.49924594e-01 2.93082952e-01 3.05906415e-01 3.56367350e-01 2.58914649e-01 2.93082952e-01 3.05906415e-01 4.33394350e-02 1.51511997e-01 3.82868201e-02 7.98576027e-02 2.22252831e-01 2.52499461e-01 1.83450609e-01 2.22252831e-01 3.28654833e-02 1.07351862e-01 2.71276310e-02 5.80196343e-02 1.42881662e-01 6.92721829e-02 1.70592681e-01 1.30058184e-01 5.45048654e-01 6.16168439e-01 5.48718274e-01 5.73872447e-01 6.63609207e-01 6.85547888e-01 6.10502899e-01 6.56981707e-01 5.12631118e-01 5.29578507e-01 4.43553954e-01 4.98207241e-01 5.80389202e-01 5.54330409e-01 6.27484024e-01 5.90965867e-01 4.98207241e-01 5.06968975e-01 4.40125048e-01 4.85383779e-01 4.75838304e-01 4.11227256e-01 3.92763644e-01 4.29359496e-01 3.77804220e-01 3.59206319e-01 3.11844915e-01 3.52650046e-01 3.98665011e-01 4.21044350e-01 4.75983649e-01 4.35183197e-01 6.81141257e-01 6.50558829e-01 5.79344034e-01 6.40071511e-01 5.94975770e-01 5.16528070e-01 4.59985256e-01 5.25716245e-01 4.59612489e-01 3.99012506e-01 3.34197044e-01 3.98665011e-01 4.64426965e-01 5.25026977e-01 5.94313443e-01 5.29845476e-01 6.61231995e-01 5.65450430e-01 5.84143996e-01 6.06578708e-01 4.50684160e-01 3.29063714e-01 3.72001052e-01 3.84953201e-01 5.01430333e-01 4.00642604e-01 4.13887680e-01 4.40702856e-01 4.20915812e-01 5.26174486e-01 5.02549827e-01 4.85383779e-01 4.18230563e-01 3.03860664e-01 2.70597905e-01 3.31325412e-01 1.77813560e-01 4.49331813e-02 4.00144756e-02 8.64932835e-02 1.37359098e-01 3.47104073e-02 2.90720612e-02 6.55902252e-02 7.64096901e-02 1.88169822e-01 2.13002115e-01 1.58348814e-01 4.36916023e-01 2.92698681e-01 3.85979325e-01 3.72448057e-01 1.61525339e-01 5.41390963e-02 1.33325294e-01 1.15046531e-01 3.31325412e-01 2.07387865e-01 2.73480654e-01 2.70597905e-01 1.96599826e-01 3.23078692e-01 2.34729156e-01 2.51253128e-01 2.31537353e-02 9.16260108e-02 1.70124248e-02 4.21665758e-02 1.56577140e-01 2.15511113e-01 1.15046531e-01 1.61525339e-01 1.07072769e-02 4.23717797e-02 4.29901062e-03 1.71224847e-02 7.33571425e-02 2.97879688e-02 1.03841238e-01 6.73230737e-02 4.29210439e-03 4.21665758e-02 1.05699226e-02 1.70124248e-02 1.14107244e-01 2.13002115e-01 1.50472268e-01 1.58348814e-01 1.64415445e-02 8.64932835e-02 2.16813255e-02 4.00144756e-02 9.96615440e-02 2.90720612e-02 7.24079609e-02 6.55902252e-02 2.80859560e-01 3.17507029e-01 2.33291298e-01 2.79770106e-01 3.41952920e-01 3.53257746e-01 2.59559453e-01 3.20286930e-01 1.58133641e-01 1.63361475e-01 6.55902252e-02 1.30058184e-01 2.26262078e-01 2.16103181e-01 3.05906415e-01 2.51253128e-01 2.42882371e-01 1.97639540e-01 1.71580732e-01 2.06364200e-01 1.24218725e-01 3.26017700e-02 3.11379861e-02 6.34912327e-02 9.86266881e-02 2.84775887e-02 2.47228146e-02 5.21478802e-02 5.89523092e-02 1.29881456e-01 1.46828815e-01 1.13605611e-01 3.50987047e-01 3.35228145e-01 2.46312037e-01 3.12043011e-01 3.06586593e-01 2.66163111e-01 1.95565850e-01 2.56293356e-01 1.41778737e-01 1.23085193e-01 4.94191535e-02 1.04072452e-01 1.81054726e-01 2.04679355e-01 2.89735347e-01 2.25267395e-01 3.22359025e-01 2.20438272e-01 2.27725863e-01 2.57891059e-01 1.17652178e-01 2.60879081e-02 2.94919461e-02 5.69246858e-02 1.30899593e-01 3.17626223e-02 3.28126810e-02 6.51686266e-02 6.22426309e-02 1.62311405e-01 1.55023813e-01 1.26710594e-01 2.15511113e-01 1.56577140e-01 1.15046531e-01 1.61525339e-01 9.16260108e-02 2.31537353e-02 1.70124248e-02 4.21665758e-02 4.23717797e-02 1.07072769e-02 4.29901062e-03 1.71224847e-02 2.97879688e-02 7.33571425e-02 1.03841238e-01 6.73230737e-02 2.13002115e-01 1.14107244e-01 1.50472268e-01 1.58348814e-01 4.21665758e-02 4.29210439e-03 1.05699226e-02 1.70124248e-02 8.64932835e-02 1.64415445e-02 2.16813255e-02 4.00144756e-02 2.90720612e-02 9.96615440e-02 7.24079609e-02 6.55902252e-02 1.31110221e-01 3.22877735e-01 5.02237201e-01 6.62295997e-01 6.48530200e-02 6.55902252e-02 6.15179986e-02 6.34912327e-02 7.96903133e-01 9.00885701e-01 9.70247805e-01 1.00232375e+00 9.95881021e-01 9.51167107e-01 8.69900346e-01 7.55203843e-01 6.62295997e-01 5.02237201e-01 3.22877735e-01 1.31110221e-01 6.55902252e-02 6.48530200e-02 6.34912327e-02 6.15179986e-02 5.58188781e-02 5.89523092e-02 4.79746684e-02 5.21478802e-02 5.98719567e-02 5.69246858e-02 5.34291975e-02 4.94191535e-02 3.82868201e-02 4.33394350e-02 2.71276310e-02 3.28654833e-02 4.49331813e-02 4.00144756e-02 3.47104073e-02 2.90720612e-02 1.70124248e-02 2.31537353e-02 4.29901062e-03 1.07072769e-02 1.05699226e-02 4.29210439e-03 2.16813255e-02 1.64415445e-02 3.26017700e-02 3.11379861e-02 2.84775887e-02 2.47228146e-02 2.60879081e-02 2.94919461e-02 3.17626223e-02 3.28126810e-02 2.31537353e-02 1.70124248e-02 1.07072769e-02 4.29901062e-03 4.29210439e-03 1.05699226e-02 1.64415445e-02 2.16813255e-02 
POINT_DATA 289
FIELD FieldData 2
Velocity 3 289 float