# vtk DataFile Version 2.0
./pics/TrueSolution_1_4.vtk, Created by Freefem++ 
ASCII
DATASET UNSTRUCTURED_GRID
POINTS 289 float
0 0 0
0.25 0 0
0.5 0 0
0.75 0 0
1 0 0
0 0.25 0
0.25 0.25 0
0.5 0.25 0
0.75 0.25 0
1 0.25 0
0 0.5 0
0.25 0.5 0
0.5 0.5 0
0.75 0.5 0
1 0.5 0
0 0.75 0
0.25 0.75 0
0.5 0.75 0
0.75 0.75 0
1 0.75 0
0 1 0
0.25 1 0
0.5 1 0
0.75 1 0
1 1 0
0.25 0.125 0
0.125 0 0
0 0.125 0
0.125 0.125 0
0.5 0.125 0
0.375 0 0
0.375 0.125 0
0.75 0.125 0
0.625 0 0
0.625 0.125 0
0.875 0.125 0
0.875 0 0
1 0.125 0
0.25 0.375 0
0.125 0.25 0
0 0.375 0
0.125 0.375 0
0.5 0.375 0
0.375 0.25 0
0.375 0.375 0
0.75 0.375 0
0.625 0.25 0
0.625 0.375 0
1 0.375 0
0.875 0.25 0
0.875 0.375 0
0.25 0.625 0
0.125 0.5 0
0 0.625 0
0.125 0.625 0
0.5 0.625 0
0.375 0.5 0
0.375 0.625 0
0.75 0.625 0
0.625 0.5 0
0.625 0.625 0
1 0.625 0
0.875 0.5 0
0.875 0.625 0
0.125 0.875 0
0 0.875 0
0.125 0.75 0
0.25 0.875 0
0.125 1 0
0.5 0.875 0
0.375 0.75 0
0.375 1 0
0.375 0.875 0
0.75 0.875 0
0.625 0.75 0
0.625 1 0
0.625 0.875 0
1 0.875 0
0.875 0.75 0
0.875 1 0
0.875 0.875 0
0.125 0.0625 0
0.0625 0 0
0.25 0.0625 0
0.1875 0.0625 0
0.1875 0 0
0.1875 0.1875 0
0.1875 0.125 0
0 0.0625 0
0.0625 0.0625 0
0.1875 0.25 0
0 0.1875 0
0.0625 0.1875 0
0.0625 0.125 0
0.125 0.1875 0
0.375 0.0625 0
0.3125 0 0
0.5 0.0625 0
0.4375 0.0625 0
0.4375 0 0
0.4375 0.1875 0
0.4375 0.125 0
0.3125 0.0625 0
0.4375 0.25 0
0.25 0.1875 0
0.3125 0.1875 0
0.3125 0.125 0
0.375 0.1875 0
0.625 0.0625 0
0.5625 0 0
0.75 0.0625 0
0.6875 0.0625 0
0.6875 0 0
0.6875 0.1875 0
0.6875 0.125 0
0.5625 0.0625 0
0.6875 0.25 0
0.5 0.1875 0
0.5625 0.1875 0
0.5625 0.125 0
0.625 0.1875 0
0.8125 0 0
0.9375 0.0625 0
0.875 0.0625 0
0.9375 0 0
0.75 0.1875 0
0.8125 0.125 0
0.8125 0.0625 0
0.875 0.1875 0
0.8125 0.1875 0
1 0.0625 0
1 0.1875 0
0.9375 0.25 0
0.9375 0.125 0
0.9375 0.1875 0
0.125 0.3125 0
0.0625 0.25 0
0.25 0.3125 0
0.1875 0.3125 0
0.1875 0.4375 0
0.1875 0.375 0
0 0.3125 0
0.0625 0.3125 0
0.1875 0.5 0
0 0.4375 0
0.0625 0.4375 0
0.0625 0.375 0
0.125 0.4375 0
0.375 0.3125 0
0.3125 0.25 0
0.5 0.3125 0
0.4375 0.3125 0
0.4375 0.4375 0
0.4375 0.375 0
0.3125 0.3125 0
0.4375 0.5 0
0.25 0.4375 0
0.3125 0.4375 0
0.3125 0.375 0
0.375 0.4375 0
0.625 0.3125 0
0.5625 0.25 0
0.75 0.3125 0
0.6875 0.3125 0
0.6875 0.4375 0
0.6875 0.375 0
0.5625 0.3125 0
0.6875 0.5 0
0.5 0.4375 0
0.5625 0.4375 0
0.5625 0.375 0
0.625 0.4375 0
0.875 0.3125 0
0.8125 0.25 0
1 0.3125 0
0.9375 0.3125 0
1 0.4375 0
0.9375 0.4375 0
0.9375 0.375 0
0.8125 0.3125 0
0.9375 0.5 0
0.75 0.4375 0
0.8125 0.4375 0
0.8125 0.375 0
0.875 0.4375 0
0.125 0.5625 0
0.0625 0.5 0
0.25 0.5625 0
0.1875 0.5625 0
0.1875 0.6875 0
0.1875 0.625 0
0 0.5625 0
0.0625 0.5625 0
0.1875 0.75 0
0 0.6875 0
0.0625 0.6875 0
0.0625 0.625 0
0.125 0.6875 0
0.375 0.5625 0
0.3125 0.5 0
0.5 0.5625 0
0.4375 0.5625 0
0.4375 0.6875 0
0.4375 0.625 0
0.3125 0.5625 0
0.4375 0.75 0
0.25 0.6875 0
0.3125 0.6875 0
0.3125 0.625 0
0.375 0.6875 0
0.625 0.5625 0
0.5625 0.5 0
0.75 0.5625 0
0.6875 0.5625 0
0.6875 0.6875 0
0.6875 0.625 0
0.5625 0.5625 0
0.6875 0.75 0
0.5 0.6875 0
0.5625 0.6875 0
0.5625 0.625 0
0.625 0.6875 0
0.875 0.5625 0
0.8125 0.5 0
1 0.5625 0
0.9375 0.5625 0
1 0.6875 0
0.9375 0.6875 0
0.9375 0.625 0
0.8125 0.5625 0
0.9375 0.75 0
0.75 0.6875 0
0.8125 0.6875 0
0.8125 0.625 0
0.875 0.6875 0
0 0.8125 0
0.0625 0.75 0
0.1875 0.8125 0
0.125 0.8125 0
0 0.9375 0
0.0625 0.8125 0
0.0625 0.875 0
0.125 0.9375 0
0.0625 1 0
0.0625 0.9375 0
0.25 0.8125 0
0.1875 1 0
0.1875 0.875 0
0.1875 0.9375 0
0.375 0.8125 0
0.3125 0.75 0
0.5 0.8125 0
0.4375 0.8125 0
0.4375 0.9375 0
0.4375 0.875 0
0.3125 0.8125 0
0.4375 1 0
0.375 0.9375 0
0.3125 1 0
0.25 0.9375 0
0.3125 0.9375 0
0.3125 0.875 0
0.625 0.8125 0
0.5625 0.75 0
0.75 0.8125 0
0.6875 0.8125 0
0.6875 0.9375 0
0.6875 0.875 0
0.5625 0.8125 0
0.6875 1 0
0.625 0.9375 0
0.5625 1 0
0.5 0.9375 0
0.5625 0.9375 0
0.5625 0.875 0
0.875 0.8125 0
0.8125 0.75 0
1 0.8125 0
0.9375 0.8125 0
1 0.9375 0
0.9375 0.9375 0
0.9375 0.875 0
0.8125 0.8125 0
0.9375 1 0
0.875 0.9375 0
0.8125 1 0
0.75 0.9375 0
0.8125 0.9375 0
0.8125 0.875 0

CELLS 576 2240
3 0 82 89
3 82 26 81
3 89 81 28
3 81 89 82
3 26 85 84
3 85 1 83
3 84 83 25
3 83 84 85
3 28 87 86
3 87 25 104
3 86 104 6
3 104 86 87
3 25 87 84
3 87 28 81
3 84 81 26
3 81 84 87
3 0 89 88
3 89 28 93
3 88 93 27
3 93 88 89
3 28 86 94
3 86 6 90
3 94 90 39
3 90 94 86
3 27 92 91
3 92 39 136
3 91 136 5
3 136 91 92
3 39 92 94
3 92 27 93
3 94 93 28
3 93 94 92
3 1 96 102
3 96 30 95
3 102 95 31
3 95 102 96
3 30 99 98
3 99 2 97
3 98 97 29
3 97 98 99
3 31 101 100
3 101 29 117
3 100 117 7
3 117 100 101
3 29 101 98
3 101 31 95
3 98 95 30
3 95 98 101
3 1 102 83
3 102 31 106
3 83 106 25
3 106 83 102
3 31 100 107
3 100 7 103
3 107 103 43
3 103 107 100
3 25 105 104
3 105 43 149
3 104 149 6
3 149 104 105
3 43 105 107
3 105 25 106
3 107 106 31
3 106 107 105
3 2 109 115
3 109 33 108
3 115 108 34
3 108 115 109
3 33 112 111
3 112 3 110
3 111 110 32
3 110 111 112
3 34 114 113
3 114 32 125
3 113 125 8
3 125 113 114
3 32 114 111
3 114 34 108
3 111 108 33
3 108 111 114
3 2 115 97
3 115 34 119
3 97 119 29
3 119 97 115
3 34 113 120
3 113 8 116
3 120 116 46
3 116 120 113
3 29 118 117
3 118 46 161
3 117 161 7
3 161 117 118
3 46 118 120
3 118 29 119
3 120 119 34
3 119 120 118
3 3 121 110
3 121 36 127
3 110 127 32
3 127 110 121
3 36 124 123
3 124 4 122
3 123 122 35
3 122 123 124
3 32 126 125
3 126 35 129
3 125 129 8
3 129 125 126
3 35 126 123
3 126 32 127
3 123 127 36
3 127 123 126
3 8 129 173
3 129 35 128
3 173 128 49
3 128 173 129
3 35 122 133
3 122 4 130
3 133 130 37
3 130 133 122
3 49 134 132
3 134 37 131
3 132 131 9
3 131 132 134
3 37 134 133
3 134 49 128
3 133 128 35
3 128 133 134
3 5 136 142
3 136 39 135
3 142 135 41
3 135 142 136
3 39 90 138
3 90 6 137
3 138 137 38
3 137 138 90
3 41 140 139
3 140 38 156
3 139 156 11
3 156 139 140
3 38 140 138
3 140 41 135
3 138 135 39
3 135 138 140
3 5 142 141
3 142 41 146
3 141 146 40
3 146 141 142
3 41 139 147
3 139 11 143
3 147 143 52
3 143 147 139
3 40 145 144
3 145 52 186
3 144 186 10
3 186 144 145
3 52 145 147
3 145 40 146
3 147 146 41
3 146 147 145
3 6 149 154
3 149 43 148
3 154 148 44
3 148 154 149
3 43 103 151
3 103 7 150
3 151 150 42
3 150 151 103
3 44 153 152
3 153 42 168
3 152 168 12
3 168 152 153
3 42 153 151
3 153 44 148
3 151 148 43
3 148 151 153
3 6 154 137
3 154 44 158
3 137 158 38
3 158 137 154
3 44 152 159
3 152 12 155
3 159 155 56
3 155 159 152
3 38 157 156
3 157 56 199
3 156 199 11
3 199 156 157
3 56 157 159
3 157 38 158
3 159 158 44
3 158 159 157
3 7 161 166
3 161 46 160
3 166 160 47
3 160 166 161
3 46 116 163
3 116 8 162
3 163 162 45
3 162 163 116
3 47 165 164
3 165 45 181
3 164 181 13
3 181 164 165
3 45 165 163
3 165 47 160
3 163 160 46
3 160 163 165
3 7 166 150
3 166 47 170
3 150 170 42
3 170 150 166
3 47 164 171
3 164 13 167
3 171 167 59
3 167 171 164
3 42 169 168
3 169 59 211
3 168 211 12
3 211 168 169
3 59 169 171
3 169 42 170
3 171 170 47
3 170 171 169
3 8 173 179
3 173 49 172
3 179 172 50
3 172 179 173
3 49 132 175
3 132 9 174
3 175 174 48
3 174 175 132
3 50 178 177
3 178 48 176
3 177 176 14
3 176 177 178
3 48 178 175
3 178 50 172
3 175 172 49
3 172 175 178
3 8 179 162
3 179 50 183
3 162 183 45
3 183 162 179
3 50 177 184
3 177 14 180
3 184 180 62
3 180 184 177
3 45 182 181
3 182 62 223
3 181 223 13
3 223 181 182
3 62 182 184
3 182 45 183
3 184 183 50
3 183 184 182
3 10 186 192
3 186 52 185
3 192 185 54
3 185 192 186
3 52 143 188
3 143 11 187
3 188 187 51
3 187 188 143
3 54 190 189
3 190 51 206
3 189 206 16
3 206 189 190
3 51 190 188
3 190 54 185
3 188 185 52
3 185 188 190
3 10 192 191
3 192 54 196
3 191 196 53
3 196 191 192
3 54 189 197
3 189 16 193
3 197 193 66
3 193 197 189
3 53 195 194
3 195 66 236
3 194 236 15
3 236 194 195
3 66 195 197
3 195 53 196
3 197 196 54
3 196 197 195
3 11 199 204
3 199 56 198
3 204 198 57
3 198 204 199
3 56 155 201
3 155 12 200
3 201 200 55
3 200 201 155
3 57 203 202
3 203 55 218
3 202 218 17
3 218 202 203
3 55 203 201
3 203 57 198
3 201 198 56
3 198 201 203
3 11 204 187
3 204 57 208
3 187 208 51
3 208 187 204
3 57 202 209
3 202 17 205
3 209 205 70
3 205 209 202
3 51 207 206
3 207 70 250
3 206 250 16
3 250 206 207
3 70 207 209
3 207 51 208
3 209 208 57
3 208 209 207
3 12 211 216
3 211 59 210
3 216 210 60
3 210 216 211
3 59 167 213
3 167 13 212
3 213 212 58
3 212 213 167
3 60 215 214
3 215 58 231
3 214 231 18
3 231 214 215
3 58 215 213
3 215 60 210
3 213 210 59
3 210 213 215
3 12 216 200
3 216 60 220
3 200 220 55
3 220 200 216
3 60 214 221
3 214 18 217
3 221 217 74
3 217 221 214
3 55 219 218
3 219 74 263
3 218 263 17
3 263 218 219
3 74 219 221
3 219 55 220
3 221 220 60
3 220 221 219
3 13 223 229
3 223 62 222
3 229 222 63
3 222 229 223
3 62 180 225
3 180 14 224
3 225 224 61
3 224 225 180
3 63 228 227
3 228 61 226
3 227 226 19
3 226 227 228
3 61 228 225
3 228 63 222
3 225 222 62
3 222 225 228
3 13 229 212
3 229 63 233
3 212 233 58
3 233 212 229
3 63 227 234
3 227 19 230
3 234 230 78
3 230 234 227
3 58 232 231
3 232 78 276
3 231 276 18
3 276 231 232
3 78 232 234
3 232 58 233
3 234 233 63
3 233 234 232
3 15 236 235
3 236 66 240
3 235 240 65
3 240 235 236
3 66 193 238
3 193 16 237
3 238 237 64
3 237 238 193
3 65 241 239
3 241 64 244
3 239 244 20
3 244 239 241
3 64 241 238
3 241 65 240
3 238 240 66
3 240 238 241
3 20 244 243
3 244 64 242
3 243 242 68
3 242 243 244
3 64 237 247
3 237 16 245
3 247 245 67
3 245 247 237
3 68 248 246
3 248 67 259
3 246 259 21
3 259 246 248
3 67 248 247
3 248 68 242
3 247 242 64
3 242 247 248
3 16 250 255
3 250 70 249
3 255 249 72
3 249 255 250
3 70 205 252
3 205 17 251
3 252 251 69
3 251 252 205
3 72 254 253
3 254 69 272
3 253 272 22
3 272 253 254
3 69 254 252
3 254 72 249
3 252 249 70
3 249 252 254
3 16 255 245
3 255 72 261
3 245 261 67
3 261 245 255
3 72 253 257
3 253 22 256
3 257 256 71
3 256 257 253
3 67 260 259
3 260 71 258
3 259 258 21
3 258 259 260
3 71 260 257
3 260 67 261
3 257 261 72
3 261 257 260
3 17 263 268
3 263 74 262
3 268 262 76
3 262 268 263
3 74 217 265
3 217 18 264
3 265 264 73
3 264 265 217
3 76 267 266
3 267 73 286
3 266 286 23
3 286 266 267
3 73 267 265
3 267 76 262
3 265 262 74
3 262 265 267
3 17 268 251
3 268 76 274
3 251 274 69
3 274 251 268
3 76 266 270
3 266 23 269
3 270 269 75
3 269 270 266
3 69 273 272
3 273 75 271
3 272 271 22
3 271 272 273
3 75 273 270
3 273 69 274
3 270 274 76
3 274 270 273
3 18 276 282
3 276 78 275
3 282 275 80
3 275 282 276
3 78 230 278
3 230 19 277
3 278 277 77
3 277 278 230
3 80 281 280
3 281 77 279
3 280 279 24
3 279 280 281
3 77 281 278
3 281 80 275
3 278 275 78
3 275 278 281
3 18 282 264
3 282 80 288
3 264 288 73
3 288 264 282
3 80 280 284
3 280 24 283
3 284 283 79
3 283 284 280
3 73 287 286
3 287 79 285
3 286 285 23
3 285 286 287
3 79 287 284
3 287 73 288
3 284 288 80
3 288 284 287
2 0 82
2 82 26
2 26 85
2 85 1
2 27 88
2 88 0
2 5 91
2 91 27
2 1 96
2 96 30
2 30 99
2 99 2
2 2 109
2 109 33
2 33 112
2 112 3
2 3 121
2 121 36
2 36 124
2 124 4
2 4 130
2 130 37
2 37 131
2 131 9
2 40 141
2 141 5
2 10 144
2 144 40
2 9 174
2 174 48
2 48 176
2 176 14
2 53 191
2 191 10
2 15 194
2 194 53
2 14 224
2 224 61
2 61 226
2 226 19
2 65 235
2 235 15
2 20 239
2 239 65
2 68 243
2 243 20
2 21 246
2 246 68
2 22 256
2 256 71
2 71 258
2 258 21
2 23 269
2 269 75
2 75 271
2 271 22
2 19 277
2 277 77
2 77 279
2 279 24
2 24 283
2 283 79
2 79 285
2 285 23

CELL_TYPES 576
5 5 5 5 5 5 5 5 5 5 5 5 5 5 5 5 5 5 5 5 5 5 5 5 5 5 5 5 5 5 5 5 5 5 5 5 5 5 5 5 5 5 5 5 5 5 5 5 5 5 5 5 5 5 5 5 5 5 5 5 5 5 5 5 5 5 5 5 5 5 5 5 5 5 5 5 5 5 5 5 5 5 5 5 5 5 5 5 5 5 5 5 5 5 5 5 5 5 5 5 5 5 5 5 5 5 5 5 5 5 5 5 5 5 5 5 5 5 5 5 5 5 5 5 5 5 5 5 5 5 5 5 5 5 5 5 5 5 5 5 5 5 5 5 5 5 5 5 5 5 5 5 5 5 5 5 5 5 5 5 5 5 5 5 5 5 5 5 5 5 5 5 5 5 5 5 5 5 5 5 5 5 5 5 5 5 5 5 5 5 5 5 5 5 5 5 5 5 5 5 5 5 5 5 5 5 5 5 5 5 5 5 5 5 5 5 5 5 5 5 5 5 5 5 5 5 5 5 5 5 5 5 5 5 5 5 5 5 5 5 5 5 5 5 5 5 5 5 5 5 5 5 5 5 5 5 5 5 5 5 5 5 5 5 5 5 5 5 5 5 5 5 5 5 5 5 5 5 5 5 5 5 5 5 5 5 5 5 5 5 5 5 5 5 5 5 5 5 5 5 5 5 5 5 5 5 5 5 5 5 5 5 5 5 5 5 5 5 5 5 5 5 5 5 5 5 5 5 5 5 5 5 5 5 5 5 5 5 5 5 5 5 5 5 5 5 5 5 5 5 5 5 5 5 5 5 5 5 5 5 5 5 5 5 5 5 5 5 5 5 5 5 5 5 5 5 5 5 5 5 5 5 5 5 5 5 5 5 5 5 5 5 5 5 5 5 5 5 5 5 5 5 5 5 5 5 5 5 5 5 5 5 5 5 5 5 5 5 5 5 5 5 5 5 5 5 5 5 5 5 5 5 5 5 5 5 5 5 5 5 5 5 5 5 5 5 5 5 5 5 5 5 5 5 5 5 5 5 5 5 5 5 5 5 5 5 5 5 5 5 5 5 5 5 5 5 5 5 5 5 5 5 5 5 5 5 5 5 5 5 5 5 5 5 5 5 5 5 5 5 5 5 5 5 5 5 5 5 5 5 5 5 3 3 3 3 3 3 3 3 3 3 3 3 3 3 3 3 3 3 3 3 3 3 3 3 3 3 3 3 3 3 3 3 3 3 3 3 3 3 3 3 3 3 3 3 3 3 3 3 3 3 3 3 3 3 3 3 3 3 3 3 3 3 3 3 
CELL_DATA 576
Scalars  Label int 1
LOOKUP_TABLE FreeFempp_table
0
0
0
0
0
0
0
0
0
0
0
0
0
0
0
0
0
0
0
0
0
0
0
0
0
0
0
0
0
0
0
0
0
0
0
0
0
0
0
0
0
0
0
0
0
0
0
0
0
0
0
0
0
0
0
0
0
0
0
0
0
0
0
0
0
0
0
0
0
0
0
0
0
0
0
0
0
0
0
0
0
0
0
0
0
0
0
0
0
0
0
0
0
0
0
0
0
0
0
0
0
0
0
0
0
0
0
0
0
0
0
0
0
0
0
0
0
0
0
0
0
0
0
0
0
0
0
0
0
0
0
0
0
0
0
0
0
0
0
0
0
0
0
0
0
0
0
0
0
0
0
0
0
0
0
0
0
0
0
0
0
0
0
0
0
0
0
0
0
0
0
0
0
0
0
0
0
0
0
0
0
0
0
0
0
0
0
0
0
0
0
0
0
0
0
0
0
0
0
0
0
0
0
0
0
0
0
0
0
0
0
0
0
0
0
0
0
0
0
0
0
0
0
0
0
0
0
0
0
0
0
0
0
0
0
0
0
0
0
0
0
0
0
0
0
0
0
0
0
0
0
0
0
0
0
0
0
0
0
0
0
0
0
0
0
0
0
0
0
0
0
0
0
0
0
0
0
0
0
0
0
0
0
0
0
0
0
0
0
0
0
0
0
0
0
0
0
0
0
0
0
0
0
0
0
0
0
0
0
0
0
0
0
0
0
0
0
0
0
0
0
0
0
0
0
0
0
0
0
0
0
0
0
0
0
0
0
0
0
0
0
0
0
0
0
0
0
0
0
0
0
0
0
0
0
0
0
0
0
0
0
0
0
0
0
0
0
0
0
0
0
0
0
0
0
0
0
0
0
0
0
0
0
0
0
0
0
0
0
0
0
0
0
0
0
0
0
0
0
0
0
0
0
0
0
0
0
0
0
0
0
0
0
0
0
0
0
0
0
0
0
0
0
0
0
0
0
0
0
0
0
0
0
0
0
0
0
0
0
0
0
0
0
0
0
0
0
0
0
0
0
0
0
0
0
0
0
0
0
0
0
0
0
0
0
0
0
0
0
0
0
0
0
0
0
0
0
0
0
0
0
0
0
0
0
0
0
0
0
0
0
0
0
0
0
0
0
0
0
0
0
0
0
0
0
0
0
0
0
0
0
0
1
1
1
1
4
4
4
4
1
1
1
1
1
1
1
1
1
1
1
1
2
2
2
2
4
4
4
4
2
2
2
2
4
4
4
4
2
2
2
2
4
4
4
4
3
3
3
3
3
3
3
3
3
3
3
3
2
2
2
2
3
3
3
3

LOOKUP_TABLE FreeFempp_table 5
1.00000000 0.00000000 0.00000000 1.00000000
1.00000000 1.00000000 0.00000000 1.00000000
1.00000000 0.00000000 1.00000000 1.00000000
0.00000000 1.00000000 0.00000000 1.00000000
0.00000000 1.00000000 1.00000000 1.00000000

FIELD FieldData 1
Pressure 1 576 float
1.30979180e-01 3.22555006e-01 3.19966823e-01 2.59300023e-01 5.01735210e-01 6.61634028e-01 6.56325102e-01 6.09892726e-01 4.88890141e-01 6.44695342e-01 6.26856863e-01 5.90375185e-01 6.03037715e-01 4.38130200e-01 4.43110615e-01 4.97709304e-01 6.55246750e-02 2.56385565e-01 6.47882000e-02 1.29928201e-01 4.28930372e-01 5.72026968e-01 4.15599674e-01 4.75362718e-01 6.34277761e-02 2.43201137e-01 6.14565127e-02 1.24094568e-01 3.05600673e-01 1.27625942e-01 3.14297169e-01 2.51002014e-01 7.96106637e-01 8.99985313e-01 8.92763793e-01 8.67634773e-01 9.69278038e-01 1.00132191e+00 9.93287325e-01 9.93287325e-01 9.44463253e-01 9.75686789e-01 9.48689878e-01 9.61500525e-01 9.82123137e-01 9.38026905e-01 9.48689878e-01 9.61500525e-01 7.53237009e-01 8.57882857e-01 7.44770885e-01 7.89718688e-01 9.18330252e-01 9.31618154e-01 8.89789581e-01 9.18330252e-01 7.29132175e-01 8.13766897e-01 7.06471562e-01 7.54261196e-01 8.52679729e-01 7.75725245e-01 8.76944482e-01 8.39869082e-01 9.94885623e-01 9.50216413e-01 9.42591846e-01 9.67720866e-01 8.69030893e-01 7.54449010e-01 7.48395324e-01 7.94827700e-01 8.46782565e-01 7.35134125e-01 7.14793205e-01 7.69391894e-01 7.85894096e-01 8.88440192e-01 8.98539424e-01 8.62057805e-01 9.99713302e-01 9.56844032e-01 9.88476872e-01 9.86902654e-01 8.69784713e-01 7.45480061e-01 8.42752814e-01 8.23352396e-01 9.67720866e-01 9.07639027e-01 9.37645197e-01 9.42591846e-01 9.00270581e-01 9.69415247e-01 9.25889611e-01 9.36752200e-01 6.61634028e-01 5.01735210e-01 6.56325102e-01 6.09892726e-01 3.22555006e-01 1.30979180e-01 3.19966823e-01 2.59300023e-01 6.44695342e-01 4.88890141e-01 6.26856863e-01 5.90375185e-01 4.38130200e-01 6.03037715e-01 4.43110615e-01 4.97709304e-01 5.72026968e-01 4.28930372e-01 4.15599674e-01 4.75362718e-01 2.56385565e-01 6.55246750e-02 6.47882000e-02 1.29928201e-01 2.43201137e-01 6.34277761e-02 6.14565127e-02 1.24094568e-01 1.27625942e-01 3.05600673e-01 3.14297169e-01 2.51002014e-01 1.19368106e-01 2.93961078e-01 2.79490471e-01 2.33058110e-01 4.57257301e-01 6.02981389e-01 5.73298812e-01 5.48169851e-01 4.08052295e-01 5.38095117e-01 4.97709304e-01 4.84898627e-01 5.19033492e-01 3.77097905e-01 3.98266554e-01 4.34748232e-01 5.88933863e-02 2.20670611e-01 5.57630882e-02 1.13492057e-01 3.52297574e-01 4.46093917e-01 3.24104458e-01 3.77426594e-01 5.20957597e-02 1.89659849e-01 4.79267165e-02 9.85281095e-02 2.42639601e-01 1.06523022e-01 2.62328207e-01 2.06157938e-01 7.25533187e-01 8.20203185e-01 7.79827654e-01 7.79827654e-01 8.83353233e-01 9.12556529e-01 8.67634773e-01 8.92763793e-01 7.88296521e-01 8.14357221e-01 7.53237009e-01 7.89718688e-01 8.45311642e-01 8.07358086e-01 8.52679729e-01 8.39869082e-01 6.77007258e-01 7.38378286e-01 6.41022980e-01 6.89817905e-01 7.54261196e-01 7.26520240e-01 6.93900347e-01 7.29132175e-01 5.98865271e-01 6.34614229e-01 5.50940216e-01 5.98865271e-01 6.77007258e-01 6.47459269e-01 7.31941938e-01 6.89817905e-01 9.06690776e-01 8.65981400e-01 8.23352396e-01 8.69784713e-01 7.91992843e-01 6.87568486e-01 6.53722048e-01 7.14388847e-01 7.06767321e-01 6.13579929e-01 5.67528665e-01 6.31932199e-01 6.76417649e-01 7.64678895e-01 8.07604671e-01 7.53005981e-01 8.98539424e-01 8.23553979e-01 8.50780308e-01 8.62057805e-01 7.14388847e-01 5.81360877e-01 6.57218814e-01 6.53722048e-01 7.94827700e-01 7.07820177e-01 7.31220424e-01 7.48395324e-01 7.14793205e-01 8.09122682e-01 7.72794008e-01 7.69391894e-01 5.56721210e-01 4.04479444e-01 3.84568453e-01 4.50233698e-01 2.36693785e-01 5.98121136e-02 5.68677895e-02 1.17534585e-01 2.11223409e-01 5.33757918e-02 4.93697599e-02 1.03968434e-01 1.11287385e-01 2.74061143e-01 2.89445758e-01 2.25042239e-01 5.93719423e-01 4.26302910e-01 5.62162042e-01 5.29315889e-01 2.56037176e-01 9.56482068e-02 2.35547423e-01 1.95370376e-01 5.25190771e-01 3.66394699e-01 4.83161598e-01 4.59525496e-01 3.33863020e-01 4.96812999e-01 3.60953838e-01 3.98266554e-01 8.95843208e-02 2.20614240e-01 1.96464241e-01 1.71335220e-01 3.43166083e-01 4.52530235e-01 4.02993053e-01 4.02993053e-01 2.65092164e-01 3.49574834e-01 2.92790025e-01 3.05600673e-01 3.56011152e-01 2.58655846e-01 2.92790025e-01 3.05600673e-01 4.32961173e-02 1.51360556e-01 3.82485539e-02 7.97777846e-02 2.22030699e-01 2.52247095e-01 1.83267251e-01 2.22030699e-01 3.28326337e-02 1.07244559e-01 2.71005165e-02 5.79616427e-02 1.42738849e-01 6.92029446e-02 1.70422181e-01 1.29928201e-01 5.44503927e-01 6.15552604e-01 5.48169851e-01 5.73298812e-01 6.62945926e-01 6.84862673e-01 6.09892726e-01 6.56325102e-01 5.12118757e-01 5.29049158e-01 4.43110615e-01 4.97709304e-01 5.79809129e-01 5.53776383e-01 6.26856863e-01 5.90375185e-01 4.97709304e-01 5.06462276e-01 4.39685136e-01 4.84898627e-01 4.75362718e-01 4.10816252e-01 3.92371058e-01 4.28930372e-01 3.77426594e-01 3.58847290e-01 3.11533213e-01 3.52297574e-01 3.98266554e-01 4.20623541e-01 4.75507885e-01 4.34748232e-01 6.80460453e-01 6.49908602e-01 5.78764975e-01 6.39431775e-01 5.94381094e-01 5.16011834e-01 4.59525496e-01 5.25190771e-01 4.59153116e-01 3.98613691e-01 3.33863020e-01 3.98266554e-01 4.63962764e-01 5.24502158e-01 5.93719423e-01 5.29315889e-01 6.60571098e-01 5.64885259e-01 5.83560169e-01 6.05972409e-01 4.50233698e-01 3.28734815e-01 3.71629238e-01 3.84568453e-01 5.00929177e-01 4.00242150e-01 4.13473994e-01 4.40262377e-01 4.20495093e-01 5.25648534e-01 5.02047539e-01 4.84898627e-01 4.17812526e-01 3.03556949e-01 2.70327449e-01 3.30994248e-01 1.77635834e-01 4.48882692e-02 3.99744809e-02 8.64068344e-02 1.37221813e-01 3.46757174e-02 2.90430039e-02 6.55246750e-02 7.63333216e-02 1.87981740e-01 2.12789223e-01 1.58190548e-01 4.36479330e-01 2.92406142e-01 3.85593534e-01 3.72075796e-01 1.61363900e-01 5.40849864e-02 1.33192033e-01 1.14931546e-01 3.30994248e-01 2.07180589e-01 2.73207307e-01 2.70327449e-01 1.96403325e-01 3.22755784e-01 2.34494537e-01 2.51002014e-01 2.31305938e-02 9.15344283e-02 1.69954207e-02 4.21244316e-02 1.56420648e-01 2.15295702e-01 1.14931546e-01 1.61363900e-01 1.06965741e-02 4.23294306e-02 4.29471396e-03 1.71053708e-02 7.32838213e-02 2.97581945e-02 1.03737451e-01 6.72557876e-02 4.28781426e-03 4.21244316e-02 1.05593577e-02 1.69954207e-02 1.13993190e-01 2.12789223e-01 1.50321871e-01 1.58190548e-01 1.64251104e-02 8.64068344e-02 2.16596555e-02 3.99744809e-02 9.95619372e-02 2.90430039e-02 7.23355934e-02 6.55246750e-02 2.80578822e-01 3.17189693e-01 2.33058110e-01 2.79490471e-01 3.41611147e-01 3.52904648e-01 2.59300023e-01 3.19966823e-01 1.57975584e-01 1.63198188e-01 6.55246750e-02 1.29928201e-01 2.26035938e-01 2.15887174e-01 3.05600673e-01 2.51002014e-01 2.42639601e-01 1.97442010e-01 1.71409234e-01 2.06157938e-01 1.24094568e-01 3.25691849e-02 3.11068650e-02 6.34277761e-02 9.85281095e-02 2.84491256e-02 2.46981047e-02 5.20957597e-02 5.88933863e-02 1.29751638e-01 1.46682069e-01 1.13492057e-01 3.50636244e-01 3.34893078e-01 2.46065855e-01 3.11731130e-01 3.06280166e-01 2.65897065e-01 1.95370376e-01 2.56037176e-01 1.41637027e-01 1.22962169e-01 4.93697599e-02 1.03968434e-01 1.80873767e-01 2.04474777e-01 2.89445758e-01 2.25042239e-01 3.22036803e-01 2.20217943e-01 2.27498248e-01 2.57633299e-01 1.17534585e-01 2.60618329e-02 2.94624679e-02 5.68677895e-02 1.30768761e-01 3.17308754e-02 3.27798873e-02 6.51034936e-02 6.21804185e-02 1.62149176e-01 1.54868871e-01 1.26583949e-01 2.15295702e-01 1.56420648e-01 1.14931546e-01 1.61363900e-01 9.15344283e-02 2.31305938e-02 1.69954207e-02 4.21244316e-02 4.23294306e-02 1.06965741e-02 4.29471396e-03 1.71053708e-02 2.97581945e-02 7.32838213e-02 1.03737451e-01 6.72557876e-02 2.12789223e-01 1.13993190e-01 1.50321871e-01 1.58190548e-01 4.21244316e-02 4.28781426e-03 1.05593577e-02 1.69954207e-02 8.64068344e-02 1.64251104e-02 2.16596555e-02 3.99744809e-02 2.90430039e-02 9.95619372e-02 7.23355934e-02 6.55246750e-02 1.30979180e-01 3.22555006e-01 5.01735210e-01 6.61634028e-01 6.47882000e-02 6.55246750e-02 6.14565127e-02 6.34277761e-02 7.96106637e-01 8.99985313e-01 9.69278038e-01 1.00132191e+00 9.94885623e-01 9.50216413e-01 8.69030893e-01 7.54449010e-01 6.61634028e-01 5.01735210e-01 3.22555006e-01 1.30979180e-01 6.55246750e-02 6.47882000e-02 6.34277761e-02 6.14565127e-02 5.57630882e-02 5.88933863e-02 4.79267165e-02 5.20957597e-02 5.98121136e-02 5.68677895e-02 5.33757918e-02 4.93697599e-02 3.82485539e-02 4.32961173e-02 2.71005165e-02 3.28326337e-02 4.48882692e-02 3.99744809e-02 3.46757174e-02 2.90430039e-02 1.69954207e-02 2.31305938e-02 4.29471396e-03 1.06965741e-02 1.05593577e-02 4.28781426e-03 2.16596555e-02 1.64251104e-02 3.25691849e-02 3.11068650e-02 2.84491256e-02 2.46981047e-02 2.60618329e-02 2.94624679e-02 3.17308754e-02 3.27798873e-02 2.31305938e-02 1.69954207e-02 1.06965741e-02 4.29471396e-03 4.28781426e-03 1.05593577e-02 1.64251104e-02 2.16596555e-02 
POINT_DATA 289
FIELD FieldData 2
Velocity 3 289 float