# vtk DataFile Version 2.0
./pics/TrueSolution_1_10.vtk, Created by Freefem++ 
ASCII
DATASET UNSTRUCTURED_GRID
POINTS 289 float
0 0 0
0.25 0 0
0.5 0 0
0.75 0 0
1 0 0
0 0.25 0
0.25 0.25 0
0.5 0.25 0
0.75 0.25 0
1 0.25 0
0 0.5 0
0.25 0.5 0
0.5 0.5 0
0.75 0.5 0
1 0.5 0
0 0.75 0
0.25 0.75 0
0.5 0.75 0
0.75 0.75 0
1 0.75 0
0 1 0
0.25 1 0
0.5 1 0
0.75 1 0
1 1 0
0.25 0.125 0
0.125 0 0
0 0.125 0
0.125 0.125 0
0.5 0.125 0
0.375 0 0
0.375 0.125 0
0.75 0.125 0
0.625 0 0
0.625 0.125 0
0.875 0.125 0
0.875 0 0
1 0.125 0
0.25 0.375 0
0.125 0.25 0
0 0.375 0
0.125 0.375 0
0.5 0.375 0
0.375 0.25 0
0.375 0.375 0
0.75 0.375 0
0.625 0.25 0
0.625 0.375 0
1 0.375 0
0.875 0.25 0
0.875 0.375 0
0.25 0.625 0
0.125 0.5 0
0 0.625 0
0.125 0.625 0
0.5 0.625 0
0.375 0.5 0
0.375 0.625 0
0.75 0.625 0
0.625 0.5 0
0.625 0.625 0
1 0.625 0
0.875 0.5 0
0.875 0.625 0
0.125 0.875 0
0 0.875 0
0.125 0.75 0
0.25 0.875 0
0.125 1 0
0.5 0.875 0
0.375 0.75 0
0.375 1 0
0.375 0.875 0
0.75 0.875 0
0.625 0.75 0
0.625 1 0
0.625 0.875 0
1 0.875 0
0.875 0.75 0
0.875 1 0
0.875 0.875 0
0.125 0.0625 0
0.0625 0 0
0.25 0.0625 0
0.1875 0.0625 0
0.1875 0 0
0.1875 0.1875 0
0.1875 0.125 0
0 0.0625 0
0.0625 0.0625 0
0.1875 0.25 0
0 0.1875 0
0.0625 0.1875 0
0.0625 0.125 0
0.125 0.1875 0
0.375 0.0625 0
0.3125 0 0
0.5 0.0625 0
0.4375 0.0625 0
0.4375 0 0
0.4375 0.1875 0
0.4375 0.125 0
0.3125 0.0625 0
0.4375 0.25 0
0.25 0.1875 0
0.3125 0.1875 0
0.3125 0.125 0
0.375 0.1875 0
0.625 0.0625 0
0.5625 0 0
0.75 0.0625 0
0.6875 0.0625 0
0.6875 0 0
0.6875 0.1875 0
0.6875 0.125 0
0.5625 0.0625 0
0.6875 0.25 0
0.5 0.1875 0
0.5625 0.1875 0
0.5625 0.125 0
0.625 0.1875 0
0.8125 0 0
0.9375 0.0625 0
0.875 0.0625 0
0.9375 0 0
0.75 0.1875 0
0.8125 0.125 0
0.8125 0.0625 0
0.875 0.1875 0
0.8125 0.1875 0
1 0.0625 0
1 0.1875 0
0.9375 0.25 0
0.9375 0.125 0
0.9375 0.1875 0
0.125 0.3125 0
0.0625 0.25 0
0.25 0.3125 0
0.1875 0.3125 0
0.1875 0.4375 0
0.1875 0.375 0
0 0.3125 0
0.0625 0.3125 0
0.1875 0.5 0
0 0.4375 0
0.0625 0.4375 0
0.0625 0.375 0
0.125 0.4375 0
0.375 0.3125 0
0.3125 0.25 0
0.5 0.3125 0
0.4375 0.3125 0
0.4375 0.4375 0
0.4375 0.375 0
0.3125 0.3125 0
0.4375 0.5 0
0.25 0.4375 0
0.3125 0.4375 0
0.3125 0.375 0
0.375 0.4375 0
0.625 0.3125 0
0.5625 0.25 0
0.75 0.3125 0
0.6875 0.3125 0
0.6875 0.4375 0
0.6875 0.375 0
0.5625 0.3125 0
0.6875 0.5 0
0.5 0.4375 0
0.5625 0.4375 0
0.5625 0.375 0
0.625 0.4375 0
0.875 0.3125 0
0.8125 0.25 0
1 0.3125 0
0.9375 0.3125 0
1 0.4375 0
0.9375 0.4375 0
0.9375 0.375 0
0.8125 0.3125 0
0.9375 0.5 0
0.75 0.4375 0
0.8125 0.4375 0
0.8125 0.375 0
0.875 0.4375 0
0.125 0.5625 0
0.0625 0.5 0
0.25 0.5625 0
0.1875 0.5625 0
0.1875 0.6875 0
0.1875 0.625 0
0 0.5625 0
0.0625 0.5625 0
0.1875 0.75 0
0 0.6875 0
0.0625 0.6875 0
0.0625 0.625 0
0.125 0.6875 0
0.375 0.5625 0
0.3125 0.5 0
0.5 0.5625 0
0.4375 0.5625 0
0.4375 0.6875 0
0.4375 0.625 0
0.3125 0.5625 0
0.4375 0.75 0
0.25 0.6875 0
0.3125 0.6875 0
0.3125 0.625 0
0.375 0.6875 0
0.625 0.5625 0
0.5625 0.5 0
0.75 0.5625 0
0.6875 0.5625 0
0.6875 0.6875 0
0.6875 0.625 0
0.5625 0.5625 0
0.6875 0.75 0
0.5 0.6875 0
0.5625 0.6875 0
0.5625 0.625 0
0.625 0.6875 0
0.875 0.5625 0
0.8125 0.5 0
1 0.5625 0
0.9375 0.5625 0
1 0.6875 0
0.9375 0.6875 0
0.9375 0.625 0
0.8125 0.5625 0
0.9375 0.75 0
0.75 0.6875 0
0.8125 0.6875 0
0.8125 0.625 0
0.875 0.6875 0
0 0.8125 0
0.0625 0.75 0
0.1875 0.8125 0
0.125 0.8125 0
0 0.9375 0
0.0625 0.8125 0
0.0625 0.875 0
0.125 0.9375 0
0.0625 1 0
0.0625 0.9375 0
0.25 0.8125 0
0.1875 1 0
0.1875 0.875 0
0.1875 0.9375 0
0.375 0.8125 0
0.3125 0.75 0
0.5 0.8125 0
0.4375 0.8125 0
0.4375 0.9375 0
0.4375 0.875 0
0.3125 0.8125 0
0.4375 1 0
0.375 0.9375 0
0.3125 1 0
0.25 0.9375 0
0.3125 0.9375 0
0.3125 0.875 0
0.625 0.8125 0
0.5625 0.75 0
0.75 0.8125 0
0.6875 0.8125 0
0.6875 0.9375 0
0.6875 0.875 0
0.5625 0.8125 0
0.6875 1 0
0.625 0.9375 0
0.5625 1 0
0.5 0.9375 0
0.5625 0.9375 0
0.5625 0.875 0
0.875 0.8125 0
0.8125 0.75 0
1 0.8125 0
0.9375 0.8125 0
1 0.9375 0
0.9375 0.9375 0
0.9375 0.875 0
0.8125 0.8125 0
0.9375 1 0
0.875 0.9375 0
0.8125 1 0
0.75 0.9375 0
0.8125 0.9375 0
0.8125 0.875 0

CELLS 576 2240
3 0 82 89
3 82 26 81
3 89 81 28
3 81 89 82
3 26 85 84
3 85 1 83
3 84 83 25
3 83 84 85
3 28 87 86
3 87 25 104
3 86 104 6
3 104 86 87
3 25 87 84
3 87 28 81
3 84 81 26
3 81 84 87
3 0 89 88
3 89 28 93
3 88 93 27
3 93 88 89
3 28 86 94
3 86 6 90
3 94 90 39
3 90 94 86
3 27 92 91
3 92 39 136
3 91 136 5
3 136 91 92
3 39 92 94
3 92 27 93
3 94 93 28
3 93 94 92
3 1 96 102
3 96 30 95
3 102 95 31
3 95 102 96
3 30 99 98
3 99 2 97
3 98 97 29
3 97 98 99
3 31 101 100
3 101 29 117
3 100 117 7
3 117 100 101
3 29 101 98
3 101 31 95
3 98 95 30
3 95 98 101
3 1 102 83
3 102 31 106
3 83 106 25
3 106 83 102
3 31 100 107
3 100 7 103
3 107 103 43
3 103 107 100
3 25 105 104
3 105 43 149
3 104 149 6
3 149 104 105
3 43 105 107
3 105 25 106
3 107 106 31
3 106 107 105
3 2 109 115
3 109 33 108
3 115 108 34
3 108 115 109
3 33 112 111
3 112 3 110
3 111 110 32
3 110 111 112
3 34 114 113
3 114 32 125
3 113 125 8
3 125 113 114
3 32 114 111
3 114 34 108
3 111 108 33
3 108 111 114
3 2 115 97
3 115 34 119
3 97 119 29
3 119 97 115
3 34 113 120
3 113 8 116
3 120 116 46
3 116 120 113
3 29 118 117
3 118 46 161
3 117 161 7
3 161 117 118
3 46 118 120
3 118 29 119
3 120 119 34
3 119 120 118
3 3 121 110
3 121 36 127
3 110 127 32
3 127 110 121
3 36 124 123
3 124 4 122
3 123 122 35
3 122 123 124
3 32 126 125
3 126 35 129
3 125 129 8
3 129 125 126
3 35 126 123
3 126 32 127
3 123 127 36
3 127 123 126
3 8 129 173
3 129 35 128
3 173 128 49
3 128 173 129
3 35 122 133
3 122 4 130
3 133 130 37
3 130 133 122
3 49 134 132
3 134 37 131
3 132 131 9
3 131 132 134
3 37 134 133
3 134 49 128
3 133 128 35
3 128 133 134
3 5 136 142
3 136 39 135
3 142 135 41
3 135 142 136
3 39 90 138
3 90 6 137
3 138 137 38
3 137 138 90
3 41 140 139
3 140 38 156
3 139 156 11
3 156 139 140
3 38 140 138
3 140 41 135
3 138 135 39
3 135 138 140
3 5 142 141
3 142 41 146
3 141 146 40
3 146 141 142
3 41 139 147
3 139 11 143
3 147 143 52
3 143 147 139
3 40 145 144
3 145 52 186
3 144 186 10
3 186 144 145
3 52 145 147
3 145 40 146
3 147 146 41
3 146 147 145
3 6 149 154
3 149 43 148
3 154 148 44
3 148 154 149
3 43 103 151
3 103 7 150
3 151 150 42
3 150 151 103
3 44 153 152
3 153 42 168
3 152 168 12
3 168 152 153
3 42 153 151
3 153 44 148
3 151 148 43
3 148 151 153
3 6 154 137
3 154 44 158
3 137 158 38
3 158 137 154
3 44 152 159
3 152 12 155
3 159 155 56
3 155 159 152
3 38 157 156
3 157 56 199
3 156 199 11
3 199 156 157
3 56 157 159
3 157 38 158
3 159 158 44
3 158 159 157
3 7 161 166
3 161 46 160
3 166 160 47
3 160 166 161
3 46 116 163
3 116 8 162
3 163 162 45
3 162 163 116
3 47 165 164
3 165 45 181
3 164 181 13
3 181 164 165
3 45 165 163
3 165 47 160
3 163 160 46
3 160 163 165
3 7 166 150
3 166 47 170
3 150 170 42
3 170 150 166
3 47 164 171
3 164 13 167
3 171 167 59
3 167 171 164
3 42 169 168
3 169 59 211
3 168 211 12
3 211 168 169
3 59 169 171
3 169 42 170
3 171 170 47
3 170 171 169
3 8 173 179
3 173 49 172
3 179 172 50
3 172 179 173
3 49 132 175
3 132 9 174
3 175 174 48
3 174 175 132
3 50 178 177
3 178 48 176
3 177 176 14
3 176 177 178
3 48 178 175
3 178 50 172
3 175 172 49
3 172 175 178
3 8 179 162
3 179 50 183
3 162 183 45
3 183 162 179
3 50 177 184
3 177 14 180
3 184 180 62
3 180 184 177
3 45 182 181
3 182 62 223
3 181 223 13
3 223 181 182
3 62 182 184
3 182 45 183
3 184 183 50
3 183 184 182
3 10 186 192
3 186 52 185
3 192 185 54
3 185 192 186
3 52 143 188
3 143 11 187
3 188 187 51
3 187 188 143
3 54 190 189
3 190 51 206
3 189 206 16
3 206 189 190
3 51 190 188
3 190 54 185
3 188 185 52
3 185 188 190
3 10 192 191
3 192 54 196
3 191 196 53
3 196 191 192
3 54 189 197
3 189 16 193
3 197 193 66
3 193 197 189
3 53 195 194
3 195 66 236
3 194 236 15
3 236 194 195
3 66 195 197
3 195 53 196
3 197 196 54
3 196 197 195
3 11 199 204
3 199 56 198
3 204 198 57
3 198 204 199
3 56 155 201
3 155 12 200
3 201 200 55
3 200 201 155
3 57 203 202
3 203 55 218
3 202 218 17
3 218 202 203
3 55 203 201
3 203 57 198
3 201 198 56
3 198 201 203
3 11 204 187
3 204 57 208
3 187 208 51
3 208 187 204
3 57 202 209
3 202 17 205
3 209 205 70
3 205 209 202
3 51 207 206
3 207 70 250
3 206 250 16
3 250 206 207
3 70 207 209
3 207 51 208
3 209 208 57
3 208 209 207
3 12 211 216
3 211 59 210
3 216 210 60
3 210 216 211
3 59 167 213
3 167 13 212
3 213 212 58
3 212 213 167
3 60 215 214
3 215 58 231
3 214 231 18
3 231 214 215
3 58 215 213
3 215 60 210
3 213 210 59
3 210 213 215
3 12 216 200
3 216 60 220
3 200 220 55
3 220 200 216
3 60 214 221
3 214 18 217
3 221 217 74
3 217 221 214
3 55 219 218
3 219 74 263
3 218 263 17
3 263 218 219
3 74 219 221
3 219 55 220
3 221 220 60
3 220 221 219
3 13 223 229
3 223 62 222
3 229 222 63
3 222 229 223
3 62 180 225
3 180 14 224
3 225 224 61
3 224 225 180
3 63 228 227
3 228 61 226
3 227 226 19
3 226 227 228
3 61 228 225
3 228 63 222
3 225 222 62
3 222 225 228
3 13 229 212
3 229 63 233
3 212 233 58
3 233 212 229
3 63 227 234
3 227 19 230
3 234 230 78
3 230 234 227
3 58 232 231
3 232 78 276
3 231 276 18
3 276 231 232
3 78 232 234
3 232 58 233
3 234 233 63
3 233 234 232
3 15 236 235
3 236 66 240
3 235 240 65
3 240 235 236
3 66 193 238
3 193 16 237
3 238 237 64
3 237 238 193
3 65 241 239
3 241 64 244
3 239 244 20
3 244 239 241
3 64 241 238
3 241 65 240
3 238 240 66
3 240 238 241
3 20 244 243
3 244 64 242
3 243 242 68
3 242 243 244
3 64 237 247
3 237 16 245
3 247 245 67
3 245 247 237
3 68 248 246
3 248 67 259
3 246 259 21
3 259 246 248
3 67 248 247
3 248 68 242
3 247 242 64
3 242 247 248
3 16 250 255
3 250 70 249
3 255 249 72
3 249 255 250
3 70 205 252
3 205 17 251
3 252 251 69
3 251 252 205
3 72 254 253
3 254 69 272
3 253 272 22
3 272 253 254
3 69 254 252
3 254 72 249
3 252 249 70
3 249 252 254
3 16 255 245
3 255 72 261
3 245 261 67
3 261 245 255
3 72 253 257
3 253 22 256
3 257 256 71
3 256 257 253
3 67 260 259
3 260 71 258
3 259 258 21
3 258 259 260
3 71 260 257
3 260 67 261
3 257 261 72
3 261 257 260
3 17 263 268
3 263 74 262
3 268 262 76
3 262 268 263
3 74 217 265
3 217 18 264
3 265 264 73
3 264 265 217
3 76 267 266
3 267 73 286
3 266 286 23
3 286 266 267
3 73 267 265
3 267 76 262
3 265 262 74
3 262 265 267
3 17 268 251
3 268 76 274
3 251 274 69
3 274 251 268
3 76 266 270
3 266 23 269
3 270 269 75
3 269 270 266
3 69 273 272
3 273 75 271
3 272 271 22
3 271 272 273
3 75 273 270
3 273 69 274
3 270 274 76
3 274 270 273
3 18 276 282
3 276 78 275
3 282 275 80
3 275 282 276
3 78 230 278
3 230 19 277
3 278 277 77
3 277 278 230
3 80 281 280
3 281 77 279
3 280 279 24
3 279 280 281
3 77 281 278
3 281 80 275
3 278 275 78
3 275 278 281
3 18 282 264
3 282 80 288
3 264 288 73
3 288 264 282
3 80 280 284
3 280 24 283
3 284 283 79
3 283 284 280
3 73 287 286
3 287 79 285
3 286 285 23
3 285 286 287
3 79 287 284
3 287 73 288
3 284 288 80
3 288 284 287
2 0 82
2 82 26
2 26 85
2 85 1
2 27 88
2 88 0
2 5 91
2 91 27
2 1 96
2 96 30
2 30 99
2 99 2
2 2 109
2 109 33
2 33 112
2 112 3
2 3 121
2 121 36
2 36 124
2 124 4
2 4 130
2 130 37
2 37 131
2 131 9
2 40 141
2 141 5
2 10 144
2 144 40
2 9 174
2 174 48
2 48 176
2 176 14
2 53 191
2 191 10
2 15 194
2 194 53
2 14 224
2 224 61
2 61 226
2 226 19
2 65 235
2 235 15
2 20 239
2 239 65
2 68 243
2 243 20
2 21 246
2 246 68
2 22 256
2 256 71
2 71 258
2 258 21
2 23 269
2 269 75
2 75 271
2 271 22
2 19 277
2 277 77
2 77 279
2 279 24
2 24 283
2 283 79
2 79 285
2 285 23

CELL_TYPES 576
5 5 5 5 5 5 5 5 5 5 5 5 5 5 5 5 5 5 5 5 5 5 5 5 5 5 5 5 5 5 5 5 5 5 5 5 5 5 5 5 5 5 5 5 5 5 5 5 5 5 5 5 5 5 5 5 5 5 5 5 5 5 5 5 5 5 5 5 5 5 5 5 5 5 5 5 5 5 5 5 5 5 5 5 5 5 5 5 5 5 5 5 5 5 5 5 5 5 5 5 5 5 5 5 5 5 5 5 5 5 5 5 5 5 5 5 5 5 5 5 5 5 5 5 5 5 5 5 5 5 5 5 5 5 5 5 5 5 5 5 5 5 5 5 5 5 5 5 5 5 5 5 5 5 5 5 5 5 5 5 5 5 5 5 5 5 5 5 5 5 5 5 5 5 5 5 5 5 5 5 5 5 5 5 5 5 5 5 5 5 5 5 5 5 5 5 5 5 5 5 5 5 5 5 5 5 5 5 5 5 5 5 5 5 5 5 5 5 5 5 5 5 5 5 5 5 5 5 5 5 5 5 5 5 5 5 5 5 5 5 5 5 5 5 5 5 5 5 5 5 5 5 5 5 5 5 5 5 5 5 5 5 5 5 5 5 5 5 5 5 5 5 5 5 5 5 5 5 5 5 5 5 5 5 5 5 5 5 5 5 5 5 5 5 5 5 5 5 5 5 5 5 5 5 5 5 5 5 5 5 5 5 5 5 5 5 5 5 5 5 5 5 5 5 5 5 5 5 5 5 5 5 5 5 5 5 5 5 5 5 5 5 5 5 5 5 5 5 5 5 5 5 5 5 5 5 5 5 5 5 5 5 5 5 5 5 5 5 5 5 5 5 5 5 5 5 5 5 5 5 5 5 5 5 5 5 5 5 5 5 5 5 5 5 5 5 5 5 5 5 5 5 5 5 5 5 5 5 5 5 5 5 5 5 5 5 5 5 5 5 5 5 5 5 5 5 5 5 5 5 5 5 5 5 5 5 5 5 5 5 5 5 5 5 5 5 5 5 5 5 5 5 5 5 5 5 5 5 5 5 5 5 5 5 5 5 5 5 5 5 5 5 5 5 5 5 5 5 5 5 5 5 5 5 5 5 5 5 5 5 5 5 5 5 5 5 5 5 5 5 5 5 5 5 5 5 5 5 5 5 5 5 3 3 3 3 3 3 3 3 3 3 3 3 3 3 3 3 3 3 3 3 3 3 3 3 3 3 3 3 3 3 3 3 3 3 3 3 3 3 3 3 3 3 3 3 3 3 3 3 3 3 3 3 3 3 3 3 3 3 3 3 3 3 3 3 
CELL_DATA 576
Scalars  Label int 1
LOOKUP_TABLE FreeFempp_table
0
0
0
0
0
0
0
0
0
0
0
0
0
0
0
0
0
0
0
0
0
0
0
0
0
0
0
0
0
0
0
0
0
0
0
0
0
0
0
0
0
0
0
0
0
0
0
0
0
0
0
0
0
0
0
0
0
0
0
0
0
0
0
0
0
0
0
0
0
0
0
0
0
0
0
0
0
0
0
0
0
0
0
0
0
0
0
0
0
0
0
0
0
0
0
0
0
0
0
0
0
0
0
0
0
0
0
0
0
0
0
0
0
0
0
0
0
0
0
0
0
0
0
0
0
0
0
0
0
0
0
0
0
0
0
0
0
0
0
0
0
0
0
0
0
0
0
0
0
0
0
0
0
0
0
0
0
0
0
0
0
0
0
0
0
0
0
0
0
0
0
0
0
0
0
0
0
0
0
0
0
0
0
0
0
0
0
0
0
0
0
0
0
0
0
0
0
0
0
0
0
0
0
0
0
0
0
0
0
0
0
0
0
0
0
0
0
0
0
0
0
0
0
0
0
0
0
0
0
0
0
0
0
0
0
0
0
0
0
0
0
0
0
0
0
0
0
0
0
0
0
0
0
0
0
0
0
0
0
0
0
0
0
0
0
0
0
0
0
0
0
0
0
0
0
0
0
0
0
0
0
0
0
0
0
0
0
0
0
0
0
0
0
0
0
0
0
0
0
0
0
0
0
0
0
0
0
0
0
0
0
0
0
0
0
0
0
0
0
0
0
0
0
0
0
0
0
0
0
0
0
0
0
0
0
0
0
0
0
0
0
0
0
0
0
0
0
0
0
0
0
0
0
0
0
0
0
0
0
0
0
0
0
0
0
0
0
0
0
0
0
0
0
0
0
0
0
0
0
0
0
0
0
0
0
0
0
0
0
0
0
0
0
0
0
0
0
0
0
0
0
0
0
0
0
0
0
0
0
0
0
0
0
0
0
0
0
0
0
0
0
0
0
0
0
0
0
0
0
0
0
0
0
0
0
0
0
0
0
0
0
0
0
0
0
0
0
0
0
0
0
0
0
0
0
0
0
0
0
0
0
0
0
0
0
0
0
0
0
0
0
0
0
0
0
0
0
0
0
0
0
0
0
0
0
0
0
0
0
0
0
0
0
0
0
0
0
0
0
0
0
0
0
0
0
0
0
0
0
0
0
0
1
1
1
1
4
4
4
4
1
1
1
1
1
1
1
1
1
1
1
1
2
2
2
2
4
4
4
4
2
2
2
2
4
4
4
4
2
2
2
2
4
4
4
4
3
3
3
3
3
3
3
3
3
3
3
3
2
2
2
2
3
3
3
3

LOOKUP_TABLE FreeFempp_table 5
1.00000000 0.00000000 0.00000000 1.00000000
1.00000000 1.00000000 0.00000000 1.00000000
1.00000000 0.00000000 1.00000000 1.00000000
0.00000000 1.00000000 0.00000000 1.00000000
0.00000000 1.00000000 1.00000000 1.00000000

FIELD FieldData 1
Pressure 1 576 float
1.31767422e-01 3.24496150e-01 3.21892381e-01 2.60860503e-01 5.04754663e-01 6.65615797e-01 6.60274863e-01 6.13563061e-01 4.91832316e-01 6.48575127e-01 6.30629301e-01 5.93928099e-01 6.06666863e-01 4.40766901e-01 4.45777267e-01 5.00704527e-01 6.59190044e-02 2.57928520e-01 6.51780963e-02 1.30710110e-01 4.31511670e-01 5.75469434e-01 4.18100774e-01 4.78223473e-01 6.38094842e-02 2.44664729e-01 6.18263595e-02 1.24841377e-01 3.07439804e-01 1.28393993e-01 3.16188633e-01 2.52512544e-01 8.00897658e-01 9.05401468e-01 8.98136497e-01 8.72856259e-01 9.75111187e-01 1.00734794e+00 9.99264956e-01 9.99264956e-01 9.50147033e-01 9.81558502e-01 9.54399109e-01 9.67286885e-01 9.88033533e-01 9.43672001e-01 9.54399109e-01 9.67286885e-01 7.57770002e-01 8.63045633e-01 7.49252915e-01 7.94471204e-01 9.23856795e-01 9.37224686e-01 8.95144343e-01 9.23856795e-01 7.33520150e-01 8.18664134e-01 7.10723162e-01 7.58800387e-01 8.57811213e-01 7.80393600e-01 8.82221997e-01 8.44923437e-01 1.00087285e+00 9.55934823e-01 9.48264420e-01 9.73544657e-01 8.74260783e-01 7.58989334e-01 7.52899170e-01 7.99610972e-01 8.51878524e-01 7.39558220e-01 7.19094872e-01 7.74022102e-01 7.90623605e-01 8.93786848e-01 9.03946877e-01 8.67245674e-01 1.00572956e+00 9.62602317e-01 9.94425535e-01 9.92841840e-01 8.75019133e-01 7.49966383e-01 8.47824514e-01 8.28307331e-01 9.73544657e-01 9.13101196e-01 9.43287969e-01 9.48264420e-01 9.05688405e-01 9.75249231e-01 9.31461632e-01 9.42389607e-01 6.65615797e-01 5.04754663e-01 6.60274863e-01 6.13563061e-01 3.24496150e-01 1.31767422e-01 3.21892381e-01 2.60860503e-01 6.48575127e-01 4.91832316e-01 6.30629301e-01 5.93928099e-01 4.40766901e-01 6.06666863e-01 4.45777267e-01 5.00704527e-01 5.75469434e-01 4.31511670e-01 4.18100774e-01 4.78223473e-01 2.57928520e-01 6.59190044e-02 6.51780963e-02 1.30710110e-01 2.44664729e-01 6.38094842e-02 6.18263595e-02 1.24841377e-01 1.28393993e-01 3.07439804e-01 3.16188633e-01 2.52512544e-01 1.20086469e-01 2.95730144e-01 2.81172454e-01 2.34460667e-01 4.60009068e-01 6.06610119e-01 5.76748967e-01 5.51468730e-01 4.10507977e-01 5.41333437e-01 5.00704527e-01 4.87816781e-01 5.22157073e-01 3.79367292e-01 4.00663346e-01 4.37364548e-01 5.92478104e-02 2.21998617e-01 5.60986698e-02 1.14175059e-01 3.54417711e-01 4.48778510e-01 3.26054931e-01 3.79697949e-01 5.24092726e-02 1.90801233e-01 4.82151434e-02 9.91210565e-02 2.44099826e-01 1.07164085e-01 2.63906926e-01 2.07398608e-01 7.29899466e-01 8.25139225e-01 7.84520686e-01 7.84520686e-01 8.88669312e-01 9.18048322e-01 8.72856259e-01 8.98136497e-01 7.93040514e-01 8.19258094e-01 7.57770002e-01 7.94471204e-01 8.50398719e-01 8.12216818e-01 8.57811213e-01 8.44923437e-01 6.81081474e-01 7.42821872e-01 6.44880652e-01 6.93969250e-01 7.58800387e-01 7.30892479e-01 6.98076248e-01 7.33520150e-01 6.02469265e-01 6.38433337e-01 5.54255784e-01 6.02469265e-01 6.81081474e-01 6.51355743e-01 7.36346781e-01 6.93969250e-01 9.12147284e-01 8.71192932e-01 8.28307331e-01 8.75019133e-01 7.96759069e-01 6.91706300e-01 6.57656133e-01 7.18688071e-01 7.11020648e-01 6.17272437e-01 5.70944071e-01 6.35735214e-01 6.80488348e-01 7.69280732e-01 8.12464893e-01 7.57537603e-01 9.03946877e-01 8.28510106e-01 8.55900347e-01 8.67245674e-01 7.18688071e-01 5.84859550e-01 6.61173999e-01 6.57656133e-01 7.99610972e-01 7.12079883e-01 7.35620916e-01 7.52899170e-01 7.19094872e-01 8.13992023e-01 7.77444720e-01 7.74022102e-01 5.60071588e-01 4.06913638e-01 3.86882782e-01 4.52943236e-01 2.38118216e-01 6.01720661e-02 5.72100207e-02 1.18241914e-01 2.12494552e-01 5.36970124e-02 4.96668704e-02 1.04594119e-01 1.11957118e-01 2.75710464e-01 2.91187674e-01 2.26396546e-01 5.97292423e-01 4.28868413e-01 5.65545201e-01 5.32501340e-01 2.57578015e-01 9.62238237e-02 2.36964956e-01 1.96546122e-01 5.28351367e-01 3.68599653e-01 4.86069292e-01 4.62290943e-01 3.35872233e-01 4.99802828e-01 3.63126069e-01 4.00663346e-01 9.01234448e-02 2.21941903e-01 1.97646558e-01 1.72366321e-01 3.45231265e-01 4.55253571e-01 4.05418277e-01 4.05418277e-01 2.66687512e-01 3.51678580e-01 2.94552028e-01 3.07439804e-01 3.58153641e-01 2.60212451e-01 2.94552028e-01 3.07439804e-01 4.35566753e-02 1.52271450e-01 3.84787321e-02 8.02578926e-02 2.23366886e-01 2.53765136e-01 1.84370160e-01 2.23366886e-01 3.30302194e-02 1.07889965e-01 2.72636078e-02 5.83104566e-02 1.43597856e-01 6.96194097e-02 1.71447784e-01 1.30710110e-01 5.47780752e-01 6.19257033e-01 5.51468730e-01 5.76748967e-01 6.66935563e-01 6.88984215e-01 6.13563061e-01 6.60274863e-01 5.15200734e-01 5.32233000e-01 4.45777267e-01 5.00704527e-01 5.83298445e-01 5.57108998e-01 6.30629301e-01 5.93928099e-01 5.00704527e-01 5.09510219e-01 4.42331195e-01 4.87816781e-01 4.78223473e-01 4.13288563e-01 3.94732386e-01 4.31511670e-01 3.79697949e-01 3.61006856e-01 3.13408047e-01 3.54417711e-01 4.00663346e-01 4.23154861e-01 4.78369504e-01 4.37364548e-01 6.84555531e-01 6.53819740e-01 5.82248032e-01 6.43279910e-01 5.97958088e-01 5.19117236e-01 4.62290943e-01 5.28351367e-01 4.61916327e-01 4.01012570e-01 3.35872233e-01 4.00663346e-01 4.66754913e-01 5.27658641e-01 5.97292423e-01 5.32501340e-01 6.64546430e-01 5.68284750e-01 5.87072015e-01 6.09619200e-01 4.52943236e-01 3.30713153e-01 3.73865724e-01 3.86882782e-01 5.03943801e-01 4.02650833e-01 4.15962279e-01 4.42911893e-01 4.23025668e-01 5.28811932e-01 5.05068898e-01 4.87816781e-01 4.20326948e-01 3.05383772e-01 2.71954298e-01 3.32986176e-01 1.78704843e-01 4.51584086e-02 4.02150489e-02 8.69268328e-02 1.38047621e-01 3.48843969e-02 2.92177871e-02 6.59190044e-02 7.67926946e-02 1.89113021e-01 2.14069799e-01 1.59142554e-01 4.39106077e-01 2.94165850e-01 3.87914032e-01 3.74314964e-01 1.62334993e-01 5.44104688e-02 1.33993581e-01 1.15623206e-01 3.32986176e-01 2.08427399e-01 2.74851471e-01 2.71954298e-01 1.97585285e-01 3.24698150e-01 2.35905737e-01 2.52512544e-01 2.32697930e-02 9.20852870e-02 1.70977004e-02 4.23779376e-02 1.57361984e-01 2.16591358e-01 1.15623206e-01 1.62334993e-01 1.07609471e-02 4.25841697e-02 4.32055956e-03 1.72083117e-02 7.37248436e-02 2.99372803e-02 1.04361750e-01 6.76605329e-02 4.31361841e-03 4.23779376e-02 1.06229037e-02 1.70977004e-02 1.14679210e-01 2.14069799e-01 1.51226506e-01 1.59142554e-01 1.65239573e-02 8.69268328e-02 2.17900053e-02 4.02150489e-02 1.00161098e-01 2.92177871e-02 7.27709085e-02 6.59190044e-02 2.82267362e-01 3.19098562e-01 2.34460667e-01 2.81172454e-01 3.43666971e-01 3.55028450e-01 2.60860503e-01 3.21892381e-01 1.58926293e-01 1.64180323e-01 6.59190044e-02 1.30710110e-01 2.27396220e-01 2.17186391e-01 3.07439804e-01 2.52512544e-01 2.44099826e-01 1.98630214e-01 1.72440782e-01 2.07398608e-01 1.24841377e-01 3.27651873e-02 3.12940665e-02 6.38094842e-02 9.91210565e-02 2.86203343e-02 2.48467382e-02 5.24092726e-02 5.92478104e-02 1.30532488e-01 1.47564799e-01 1.14175059e-01 3.52746397e-01 3.36908489e-01 2.47546688e-01 3.13607126e-01 3.08123380e-01 2.67497241e-01 1.96546122e-01 2.57578015e-01 1.42489418e-01 1.23702161e-01 4.96668704e-02 1.04594119e-01 1.81962267e-01 2.05705315e-01 2.91187674e-01 2.26396546e-01 3.23974848e-01 2.21543223e-01 2.28867337e-01 2.59183735e-01 1.18241914e-01 2.62186732e-02 2.96397749e-02 5.72100207e-02 1.31555721e-01 3.19218338e-02 3.29771563e-02 6.54952824e-02 6.25546202e-02 1.63125008e-01 1.55800879e-01 1.27345726e-01 2.16591358e-01 1.57361984e-01 1.15623206e-01 1.62334993e-01 9.20852870e-02 2.32697930e-02 1.70977004e-02 4.23779376e-02 4.25841697e-02 1.07609471e-02 4.32055956e-03 1.72083117e-02 2.99372803e-02 7.37248436e-02 1.04361750e-01 6.76605329e-02 2.14069799e-01 1.14679210e-01 1.51226506e-01 1.59142554e-01 4.23779376e-02 4.31361841e-03 1.06229037e-02 1.70977004e-02 8.69268328e-02 1.65239573e-02 2.17900053e-02 4.02150489e-02 2.92177871e-02 1.00161098e-01 7.27709085e-02 6.59190044e-02 1.31767422e-01 3.24496150e-01 5.04754663e-01 6.65615797e-01 6.51780963e-02 6.59190044e-02 6.18263595e-02 6.38094842e-02 8.00897658e-01 9.05401468e-01 9.75111187e-01 1.00734794e+00 1.00087285e+00 9.55934823e-01 8.74260783e-01 7.58989334e-01 6.65615797e-01 5.04754663e-01 3.24496150e-01 1.31767422e-01 6.59190044e-02 6.51780963e-02 6.38094842e-02 6.18263595e-02 5.60986698e-02 5.92478104e-02 4.82151434e-02 5.24092726e-02 6.01720661e-02 5.72100207e-02 5.36970124e-02 4.96668704e-02 3.84787321e-02 4.35566753e-02 2.72636078e-02 3.30302194e-02 4.51584086e-02 4.02150489e-02 3.48843969e-02 2.92177871e-02 1.70977004e-02 2.32697930e-02 4.32055956e-03 1.07609471e-02 1.06229037e-02 4.31361841e-03 2.17900053e-02 1.65239573e-02 3.27651873e-02 3.12940665e-02 2.86203343e-02 2.48467382e-02 2.62186732e-02 2.96397749e-02 3.19218338e-02 3.29771563e-02 2.32697930e-02 1.70977004e-02 1.07609471e-02 4.32055956e-03 4.31361841e-03 1.06229037e-02 1.65239573e-02 2.17900053e-02 
POINT_DATA 289
FIELD FieldData 2
Velocity 3 289 float