# vtk DataFile Version 2.0
./pics/TrueSolution_1_9.vtk, Created by Freefem++ 
ASCII
DATASET UNSTRUCTURED_GRID
POINTS 289 float
0 0 0
0.25 0 0
0.5 0 0
0.75 0 0
1 0 0
0 0.25 0
0.25 0.25 0
0.5 0.25 0
0.75 0.25 0
1 0.25 0
0 0.5 0
0.25 0.5 0
0.5 0.5 0
0.75 0.5 0
1 0.5 0
0 0.75 0
0.25 0.75 0
0.5 0.75 0
0.75 0.75 0
1 0.75 0
0 1 0
0.25 1 0
0.5 1 0
0.75 1 0
1 1 0
0.25 0.125 0
0.125 0 0
0 0.125 0
0.125 0.125 0
0.5 0.125 0
0.375 0 0
0.375 0.125 0
0.75 0.125 0
0.625 0 0
0.625 0.125 0
0.875 0.125 0
0.875 0 0
1 0.125 0
0.25 0.375 0
0.125 0.25 0
0 0.375 0
0.125 0.375 0
0.5 0.375 0
0.375 0.25 0
0.375 0.375 0
0.75 0.375 0
0.625 0.25 0
0.625 0.375 0
1 0.375 0
0.875 0.25 0
0.875 0.375 0
0.25 0.625 0
0.125 0.5 0
0 0.625 0
0.125 0.625 0
0.5 0.625 0
0.375 0.5 0
0.375 0.625 0
0.75 0.625 0
0.625 0.5 0
0.625 0.625 0
1 0.625 0
0.875 0.5 0
0.875 0.625 0
0.125 0.875 0
0 0.875 0
0.125 0.75 0
0.25 0.875 0
0.125 1 0
0.5 0.875 0
0.375 0.75 0
0.375 1 0
0.375 0.875 0
0.75 0.875 0
0.625 0.75 0
0.625 1 0
0.625 0.875 0
1 0.875 0
0.875 0.75 0
0.875 1 0
0.875 0.875 0
0.125 0.0625 0
0.0625 0 0
0.25 0.0625 0
0.1875 0.0625 0
0.1875 0 0
0.1875 0.1875 0
0.1875 0.125 0
0 0.0625 0
0.0625 0.0625 0
0.1875 0.25 0
0 0.1875 0
0.0625 0.1875 0
0.0625 0.125 0
0.125 0.1875 0
0.375 0.0625 0
0.3125 0 0
0.5 0.0625 0
0.4375 0.0625 0
0.4375 0 0
0.4375 0.1875 0
0.4375 0.125 0
0.3125 0.0625 0
0.4375 0.25 0
0.25 0.1875 0
0.3125 0.1875 0
0.3125 0.125 0
0.375 0.1875 0
0.625 0.0625 0
0.5625 0 0
0.75 0.0625 0
0.6875 0.0625 0
0.6875 0 0
0.6875 0.1875 0
0.6875 0.125 0
0.5625 0.0625 0
0.6875 0.25 0
0.5 0.1875 0
0.5625 0.1875 0
0.5625 0.125 0
0.625 0.1875 0
0.8125 0 0
0.9375 0.0625 0
0.875 0.0625 0
0.9375 0 0
0.75 0.1875 0
0.8125 0.125 0
0.8125 0.0625 0
0.875 0.1875 0
0.8125 0.1875 0
1 0.0625 0
1 0.1875 0
0.9375 0.25 0
0.9375 0.125 0
0.9375 0.1875 0
0.125 0.3125 0
0.0625 0.25 0
0.25 0.3125 0
0.1875 0.3125 0
0.1875 0.4375 0
0.1875 0.375 0
0 0.3125 0
0.0625 0.3125 0
0.1875 0.5 0
0 0.4375 0
0.0625 0.4375 0
0.0625 0.375 0
0.125 0.4375 0
0.375 0.3125 0
0.3125 0.25 0
0.5 0.3125 0
0.4375 0.3125 0
0.4375 0.4375 0
0.4375 0.375 0
0.3125 0.3125 0
0.4375 0.5 0
0.25 0.4375 0
0.3125 0.4375 0
0.3125 0.375 0
0.375 0.4375 0
0.625 0.3125 0
0.5625 0.25 0
0.75 0.3125 0
0.6875 0.3125 0
0.6875 0.4375 0
0.6875 0.375 0
0.5625 0.3125 0
0.6875 0.5 0
0.5 0.4375 0
0.5625 0.4375 0
0.5625 0.375 0
0.625 0.4375 0
0.875 0.3125 0
0.8125 0.25 0
1 0.3125 0
0.9375 0.3125 0
1 0.4375 0
0.9375 0.4375 0
0.9375 0.375 0
0.8125 0.3125 0
0.9375 0.5 0
0.75 0.4375 0
0.8125 0.4375 0
0.8125 0.375 0
0.875 0.4375 0
0.125 0.5625 0
0.0625 0.5 0
0.25 0.5625 0
0.1875 0.5625 0
0.1875 0.6875 0
0.1875 0.625 0
0 0.5625 0
0.0625 0.5625 0
0.1875 0.75 0
0 0.6875 0
0.0625 0.6875 0
0.0625 0.625 0
0.125 0.6875 0
0.375 0.5625 0
0.3125 0.5 0
0.5 0.5625 0
0.4375 0.5625 0
0.4375 0.6875 0
0.4375 0.625 0
0.3125 0.5625 0
0.4375 0.75 0
0.25 0.6875 0
0.3125 0.6875 0
0.3125 0.625 0
0.375 0.6875 0
0.625 0.5625 0
0.5625 0.5 0
0.75 0.5625 0
0.6875 0.5625 0
0.6875 0.6875 0
0.6875 0.625 0
0.5625 0.5625 0
0.6875 0.75 0
0.5 0.6875 0
0.5625 0.6875 0
0.5625 0.625 0
0.625 0.6875 0
0.875 0.5625 0
0.8125 0.5 0
1 0.5625 0
0.9375 0.5625 0
1 0.6875 0
0.9375 0.6875 0
0.9375 0.625 0
0.8125 0.5625 0
0.9375 0.75 0
0.75 0.6875 0
0.8125 0.6875 0
0.8125 0.625 0
0.875 0.6875 0
0 0.8125 0
0.0625 0.75 0
0.1875 0.8125 0
0.125 0.8125 0
0 0.9375 0
0.0625 0.8125 0
0.0625 0.875 0
0.125 0.9375 0
0.0625 1 0
0.0625 0.9375 0
0.25 0.8125 0
0.1875 1 0
0.1875 0.875 0
0.1875 0.9375 0
0.375 0.8125 0
0.3125 0.75 0
0.5 0.8125 0
0.4375 0.8125 0
0.4375 0.9375 0
0.4375 0.875 0
0.3125 0.8125 0
0.4375 1 0
0.375 0.9375 0
0.3125 1 0
0.25 0.9375 0
0.3125 0.9375 0
0.3125 0.875 0
0.625 0.8125 0
0.5625 0.75 0
0.75 0.8125 0
0.6875 0.8125 0
0.6875 0.9375 0
0.6875 0.875 0
0.5625 0.8125 0
0.6875 1 0
0.625 0.9375 0
0.5625 1 0
0.5 0.9375 0
0.5625 0.9375 0
0.5625 0.875 0
0.875 0.8125 0
0.8125 0.75 0
1 0.8125 0
0.9375 0.8125 0
1 0.9375 0
0.9375 0.9375 0
0.9375 0.875 0
0.8125 0.8125 0
0.9375 1 0
0.875 0.9375 0
0.8125 1 0
0.75 0.9375 0
0.8125 0.9375 0
0.8125 0.875 0

CELLS 576 2240
3 0 82 89
3 82 26 81
3 89 81 28
3 81 89 82
3 26 85 84
3 85 1 83
3 84 83 25
3 83 84 85
3 28 87 86
3 87 25 104
3 86 104 6
3 104 86 87
3 25 87 84
3 87 28 81
3 84 81 26
3 81 84 87
3 0 89 88
3 89 28 93
3 88 93 27
3 93 88 89
3 28 86 94
3 86 6 90
3 94 90 39
3 90 94 86
3 27 92 91
3 92 39 136
3 91 136 5
3 136 91 92
3 39 92 94
3 92 27 93
3 94 93 28
3 93 94 92
3 1 96 102
3 96 30 95
3 102 95 31
3 95 102 96
3 30 99 98
3 99 2 97
3 98 97 29
3 97 98 99
3 31 101 100
3 101 29 117
3 100 117 7
3 117 100 101
3 29 101 98
3 101 31 95
3 98 95 30
3 95 98 101
3 1 102 83
3 102 31 106
3 83 106 25
3 106 83 102
3 31 100 107
3 100 7 103
3 107 103 43
3 103 107 100
3 25 105 104
3 105 43 149
3 104 149 6
3 149 104 105
3 43 105 107
3 105 25 106
3 107 106 31
3 106 107 105
3 2 109 115
3 109 33 108
3 115 108 34
3 108 115 109
3 33 112 111
3 112 3 110
3 111 110 32
3 110 111 112
3 34 114 113
3 114 32 125
3 113 125 8
3 125 113 114
3 32 114 111
3 114 34 108
3 111 108 33
3 108 111 114
3 2 115 97
3 115 34 119
3 97 119 29
3 119 97 115
3 34 113 120
3 113 8 116
3 120 116 46
3 116 120 113
3 29 118 117
3 118 46 161
3 117 161 7
3 161 117 118
3 46 118 120
3 118 29 119
3 120 119 34
3 119 120 118
3 3 121 110
3 121 36 127
3 110 127 32
3 127 110 121
3 36 124 123
3 124 4 122
3 123 122 35
3 122 123 124
3 32 126 125
3 126 35 129
3 125 129 8
3 129 125 126
3 35 126 123
3 126 32 127
3 123 127 36
3 127 123 126
3 8 129 173
3 129 35 128
3 173 128 49
3 128 173 129
3 35 122 133
3 122 4 130
3 133 130 37
3 130 133 122
3 49 134 132
3 134 37 131
3 132 131 9
3 131 132 134
3 37 134 133
3 134 49 128
3 133 128 35
3 128 133 134
3 5 136 142
3 136 39 135
3 142 135 41
3 135 142 136
3 39 90 138
3 90 6 137
3 138 137 38
3 137 138 90
3 41 140 139
3 140 38 156
3 139 156 11
3 156 139 140
3 38 140 138
3 140 41 135
3 138 135 39
3 135 138 140
3 5 142 141
3 142 41 146
3 141 146 40
3 146 141 142
3 41 139 147
3 139 11 143
3 147 143 52
3 143 147 139
3 40 145 144
3 145 52 186
3 144 186 10
3 186 144 145
3 52 145 147
3 145 40 146
3 147 146 41
3 146 147 145
3 6 149 154
3 149 43 148
3 154 148 44
3 148 154 149
3 43 103 151
3 103 7 150
3 151 150 42
3 150 151 103
3 44 153 152
3 153 42 168
3 152 168 12
3 168 152 153
3 42 153 151
3 153 44 148
3 151 148 43
3 148 151 153
3 6 154 137
3 154 44 158
3 137 158 38
3 158 137 154
3 44 152 159
3 152 12 155
3 159 155 56
3 155 159 152
3 38 157 156
3 157 56 199
3 156 199 11
3 199 156 157
3 56 157 159
3 157 38 158
3 159 158 44
3 158 159 157
3 7 161 166
3 161 46 160
3 166 160 47
3 160 166 161
3 46 116 163
3 116 8 162
3 163 162 45
3 162 163 116
3 47 165 164
3 165 45 181
3 164 181 13
3 181 164 165
3 45 165 163
3 165 47 160
3 163 160 46
3 160 163 165
3 7 166 150
3 166 47 170
3 150 170 42
3 170 150 166
3 47 164 171
3 164 13 167
3 171 167 59
3 167 171 164
3 42 169 168
3 169 59 211
3 168 211 12
3 211 168 169
3 59 169 171
3 169 42 170
3 171 170 47
3 170 171 169
3 8 173 179
3 173 49 172
3 179 172 50
3 172 179 173
3 49 132 175
3 132 9 174
3 175 174 48
3 174 175 132
3 50 178 177
3 178 48 176
3 177 176 14
3 176 177 178
3 48 178 175
3 178 50 172
3 175 172 49
3 172 175 178
3 8 179 162
3 179 50 183
3 162 183 45
3 183 162 179
3 50 177 184
3 177 14 180
3 184 180 62
3 180 184 177
3 45 182 181
3 182 62 223
3 181 223 13
3 223 181 182
3 62 182 184
3 182 45 183
3 184 183 50
3 183 184 182
3 10 186 192
3 186 52 185
3 192 185 54
3 185 192 186
3 52 143 188
3 143 11 187
3 188 187 51
3 187 188 143
3 54 190 189
3 190 51 206
3 189 206 16
3 206 189 190
3 51 190 188
3 190 54 185
3 188 185 52
3 185 188 190
3 10 192 191
3 192 54 196
3 191 196 53
3 196 191 192
3 54 189 197
3 189 16 193
3 197 193 66
3 193 197 189
3 53 195 194
3 195 66 236
3 194 236 15
3 236 194 195
3 66 195 197
3 195 53 196
3 197 196 54
3 196 197 195
3 11 199 204
3 199 56 198
3 204 198 57
3 198 204 199
3 56 155 201
3 155 12 200
3 201 200 55
3 200 201 155
3 57 203 202
3 203 55 218
3 202 218 17
3 218 202 203
3 55 203 201
3 203 57 198
3 201 198 56
3 198 201 203
3 11 204 187
3 204 57 208
3 187 208 51
3 208 187 204
3 57 202 209
3 202 17 205
3 209 205 70
3 205 209 202
3 51 207 206
3 207 70 250
3 206 250 16
3 250 206 207
3 70 207 209
3 207 51 208
3 209 208 57
3 208 209 207
3 12 211 216
3 211 59 210
3 216 210 60
3 210 216 211
3 59 167 213
3 167 13 212
3 213 212 58
3 212 213 167
3 60 215 214
3 215 58 231
3 214 231 18
3 231 214 215
3 58 215 213
3 215 60 210
3 213 210 59
3 210 213 215
3 12 216 200
3 216 60 220
3 200 220 55
3 220 200 216
3 60 214 221
3 214 18 217
3 221 217 74
3 217 221 214
3 55 219 218
3 219 74 263
3 218 263 17
3 263 218 219
3 74 219 221
3 219 55 220
3 221 220 60
3 220 221 219
3 13 223 229
3 223 62 222
3 229 222 63
3 222 229 223
3 62 180 225
3 180 14 224
3 225 224 61
3 224 225 180
3 63 228 227
3 228 61 226
3 227 226 19
3 226 227 228
3 61 228 225
3 228 63 222
3 225 222 62
3 222 225 228
3 13 229 212
3 229 63 233
3 212 233 58
3 233 212 229
3 63 227 234
3 227 19 230
3 234 230 78
3 230 234 227
3 58 232 231
3 232 78 276
3 231 276 18
3 276 231 232
3 78 232 234
3 232 58 233
3 234 233 63
3 233 234 232
3 15 236 235
3 236 66 240
3 235 240 65
3 240 235 236
3 66 193 238
3 193 16 237
3 238 237 64
3 237 238 193
3 65 241 239
3 241 64 244
3 239 244 20
3 244 239 241
3 64 241 238
3 241 65 240
3 238 240 66
3 240 238 241
3 20 244 243
3 244 64 242
3 243 242 68
3 242 243 244
3 64 237 247
3 237 16 245
3 247 245 67
3 245 247 237
3 68 248 246
3 248 67 259
3 246 259 21
3 259 246 248
3 67 248 247
3 248 68 242
3 247 242 64
3 242 247 248
3 16 250 255
3 250 70 249
3 255 249 72
3 249 255 250
3 70 205 252
3 205 17 251
3 252 251 69
3 251 252 205
3 72 254 253
3 254 69 272
3 253 272 22
3 272 253 254
3 69 254 252
3 254 72 249
3 252 249 70
3 249 252 254
3 16 255 245
3 255 72 261
3 245 261 67
3 261 245 255
3 72 253 257
3 253 22 256
3 257 256 71
3 256 257 253
3 67 260 259
3 260 71 258
3 259 258 21
3 258 259 260
3 71 260 257
3 260 67 261
3 257 261 72
3 261 257 260
3 17 263 268
3 263 74 262
3 268 262 76
3 262 268 263
3 74 217 265
3 217 18 264
3 265 264 73
3 264 265 217
3 76 267 266
3 267 73 286
3 266 286 23
3 286 266 267
3 73 267 265
3 267 76 262
3 265 262 74
3 262 265 267
3 17 268 251
3 268 76 274
3 251 274 69
3 274 251 268
3 76 266 270
3 266 23 269
3 270 269 75
3 269 270 266
3 69 273 272
3 273 75 271
3 272 271 22
3 271 272 273
3 75 273 270
3 273 69 274
3 270 274 76
3 274 270 273
3 18 276 282
3 276 78 275
3 282 275 80
3 275 282 276
3 78 230 278
3 230 19 277
3 278 277 77
3 277 278 230
3 80 281 280
3 281 77 279
3 280 279 24
3 279 280 281
3 77 281 278
3 281 80 275
3 278 275 78
3 275 278 281
3 18 282 264
3 282 80 288
3 264 288 73
3 288 264 282
3 80 280 284
3 280 24 283
3 284 283 79
3 283 284 280
3 73 287 286
3 287 79 285
3 286 285 23
3 285 286 287
3 79 287 284
3 287 73 288
3 284 288 80
3 288 284 287
2 0 82
2 82 26
2 26 85
2 85 1
2 27 88
2 88 0
2 5 91
2 91 27
2 1 96
2 96 30
2 30 99
2 99 2
2 2 109
2 109 33
2 33 112
2 112 3
2 3 121
2 121 36
2 36 124
2 124 4
2 4 130
2 130 37
2 37 131
2 131 9
2 40 141
2 141 5
2 10 144
2 144 40
2 9 174
2 174 48
2 48 176
2 176 14
2 53 191
2 191 10
2 15 194
2 194 53
2 14 224
2 224 61
2 61 226
2 226 19
2 65 235
2 235 15
2 20 239
2 239 65
2 68 243
2 243 20
2 21 246
2 246 68
2 22 256
2 256 71
2 71 258
2 258 21
2 23 269
2 269 75
2 75 271
2 271 22
2 19 277
2 277 77
2 77 279
2 279 24
2 24 283
2 283 79
2 79 285
2 285 23

CELL_TYPES 576
5 5 5 5 5 5 5 5 5 5 5 5 5 5 5 5 5 5 5 5 5 5 5 5 5 5 5 5 5 5 5 5 5 5 5 5 5 5 5 5 5 5 5 5 5 5 5 5 5 5 5 5 5 5 5 5 5 5 5 5 5 5 5 5 5 5 5 5 5 5 5 5 5 5 5 5 5 5 5 5 5 5 5 5 5 5 5 5 5 5 5 5 5 5 5 5 5 5 5 5 5 5 5 5 5 5 5 5 5 5 5 5 5 5 5 5 5 5 5 5 5 5 5 5 5 5 5 5 5 5 5 5 5 5 5 5 5 5 5 5 5 5 5 5 5 5 5 5 5 5 5 5 5 5 5 5 5 5 5 5 5 5 5 5 5 5 5 5 5 5 5 5 5 5 5 5 5 5 5 5 5 5 5 5 5 5 5 5 5 5 5 5 5 5 5 5 5 5 5 5 5 5 5 5 5 5 5 5 5 5 5 5 5 5 5 5 5 5 5 5 5 5 5 5 5 5 5 5 5 5 5 5 5 5 5 5 5 5 5 5 5 5 5 5 5 5 5 5 5 5 5 5 5 5 5 5 5 5 5 5 5 5 5 5 5 5 5 5 5 5 5 5 5 5 5 5 5 5 5 5 5 5 5 5 5 5 5 5 5 5 5 5 5 5 5 5 5 5 5 5 5 5 5 5 5 5 5 5 5 5 5 5 5 5 5 5 5 5 5 5 5 5 5 5 5 5 5 5 5 5 5 5 5 5 5 5 5 5 5 5 5 5 5 5 5 5 5 5 5 5 5 5 5 5 5 5 5 5 5 5 5 5 5 5 5 5 5 5 5 5 5 5 5 5 5 5 5 5 5 5 5 5 5 5 5 5 5 5 5 5 5 5 5 5 5 5 5 5 5 5 5 5 5 5 5 5 5 5 5 5 5 5 5 5 5 5 5 5 5 5 5 5 5 5 5 5 5 5 5 5 5 5 5 5 5 5 5 5 5 5 5 5 5 5 5 5 5 5 5 5 5 5 5 5 5 5 5 5 5 5 5 5 5 5 5 5 5 5 5 5 5 5 5 5 5 5 5 5 5 5 5 5 5 5 5 5 5 5 5 5 5 5 5 5 5 5 5 5 5 5 5 5 5 5 5 5 5 5 5 5 5 5 3 3 3 3 3 3 3 3 3 3 3 3 3 3 3 3 3 3 3 3 3 3 3 3 3 3 3 3 3 3 3 3 3 3 3 3 3 3 3 3 3 3 3 3 3 3 3 3 3 3 3 3 3 3 3 3 3 3 3 3 3 3 3 3 
CELL_DATA 576
Scalars  Label int 1
LOOKUP_TABLE FreeFempp_table
0
0
0
0
0
0
0
0
0
0
0
0
0
0
0
0
0
0
0
0
0
0
0
0
0
0
0
0
0
0
0
0
0
0
0
0
0
0
0
0
0
0
0
0
0
0
0
0
0
0
0
0
0
0
0
0
0
0
0
0
0
0
0
0
0
0
0
0
0
0
0
0
0
0
0
0
0
0
0
0
0
0
0
0
0
0
0
0
0
0
0
0
0
0
0
0
0
0
0
0
0
0
0
0
0
0
0
0
0
0
0
0
0
0
0
0
0
0
0
0
0
0
0
0
0
0
0
0
0
0
0
0
0
0
0
0
0
0
0
0
0
0
0
0
0
0
0
0
0
0
0
0
0
0
0
0
0
0
0
0
0
0
0
0
0
0
0
0
0
0
0
0
0
0
0
0
0
0
0
0
0
0
0
0
0
0
0
0
0
0
0
0
0
0
0
0
0
0
0
0
0
0
0
0
0
0
0
0
0
0
0
0
0
0
0
0
0
0
0
0
0
0
0
0
0
0
0
0
0
0
0
0
0
0
0
0
0
0
0
0
0
0
0
0
0
0
0
0
0
0
0
0
0
0
0
0
0
0
0
0
0
0
0
0
0
0
0
0
0
0
0
0
0
0
0
0
0
0
0
0
0
0
0
0
0
0
0
0
0
0
0
0
0
0
0
0
0
0
0
0
0
0
0
0
0
0
0
0
0
0
0
0
0
0
0
0
0
0
0
0
0
0
0
0
0
0
0
0
0
0
0
0
0
0
0
0
0
0
0
0
0
0
0
0
0
0
0
0
0
0
0
0
0
0
0
0
0
0
0
0
0
0
0
0
0
0
0
0
0
0
0
0
0
0
0
0
0
0
0
0
0
0
0
0
0
0
0
0
0
0
0
0
0
0
0
0
0
0
0
0
0
0
0
0
0
0
0
0
0
0
0
0
0
0
0
0
0
0
0
0
0
0
0
0
0
0
0
0
0
0
0
0
0
0
0
0
0
0
0
0
0
0
0
0
0
0
0
0
0
0
0
0
0
0
0
0
0
0
0
0
0
0
0
0
0
0
0
0
0
0
0
0
0
0
0
0
0
0
0
0
0
0
0
0
0
0
0
0
0
0
0
0
0
0
0
0
0
0
0
0
0
0
0
0
0
0
0
0
0
0
0
0
1
1
1
1
4
4
4
4
1
1
1
1
1
1
1
1
1
1
1
1
2
2
2
2
4
4
4
4
2
2
2
2
4
4
4
4
2
2
2
2
4
4
4
4
3
3
3
3
3
3
3
3
3
3
3
3
2
2
2
2
3
3
3
3

LOOKUP_TABLE FreeFempp_table 5
1.00000000 0.00000000 0.00000000 1.00000000
1.00000000 1.00000000 0.00000000 1.00000000
1.00000000 0.00000000 1.00000000 1.00000000
0.00000000 1.00000000 0.00000000 1.00000000
0.00000000 1.00000000 1.00000000 1.00000000

FIELD FieldData 1
Pressure 1 576 float
1.31635711e-01 3.24171811e-01 3.21570665e-01 2.60599762e-01 5.04250169e-01 6.64950490e-01 6.59614921e-01 6.12949848e-01 4.91340727e-01 6.47926867e-01 6.29998982e-01 5.93334436e-01 6.06060505e-01 4.40326333e-01 4.45331722e-01 5.00204086e-01 6.58531114e-02 2.57670730e-01 6.51129484e-02 1.30579472e-01 4.31080371e-01 5.74894249e-01 4.17682886e-01 4.77745473e-01 6.37457073e-02 2.44420186e-01 6.17645644e-02 1.24716595e-01 3.07132512e-01 1.28265664e-01 3.15872580e-01 2.52260149e-01 8.00097108e-01 9.04496491e-01 8.97238791e-01 8.71983826e-01 9.74136531e-01 1.00634110e+00 9.98266160e-01 9.98266160e-01 9.49197352e-01 9.80577409e-01 9.53445196e-01 9.66320038e-01 9.87046003e-01 9.42728817e-01 9.53445196e-01 9.66320038e-01 7.57012606e-01 8.62183034e-01 7.48504043e-01 7.93677151e-01 9.22933400e-01 9.36287880e-01 8.94249678e-01 9.22933400e-01 7.32786953e-01 8.17845881e-01 7.10012794e-01 7.58041978e-01 8.56953800e-01 7.79613614e-01 8.81340206e-01 8.44078958e-01 9.99872506e-01 9.54979360e-01 9.47316587e-01 9.72571552e-01 8.73386919e-01 7.58230746e-01 7.52146661e-01 7.98811734e-01 8.51027071e-01 7.38819003e-01 7.18376160e-01 7.73248494e-01 7.89833367e-01 8.92893493e-01 9.03043389e-01 8.66378844e-01 1.00472438e+00 9.61640179e-01 9.93431628e-01 9.91849482e-01 8.74144554e-01 7.49216795e-01 8.46977115e-01 8.27479422e-01 9.72571552e-01 9.12188590e-01 9.42345142e-01 9.47316587e-01 9.04783189e-01 9.74274457e-01 9.30530667e-01 9.41447735e-01 6.64950490e-01 5.04250169e-01 6.59614921e-01 6.12949848e-01 3.24171811e-01 1.31635711e-01 3.21570665e-01 2.60599762e-01 6.47926867e-01 4.91340727e-01 6.29998982e-01 5.93334436e-01 4.40326333e-01 6.06060505e-01 4.45331722e-01 5.00204086e-01 5.74894249e-01 4.31080371e-01 4.17682886e-01 4.77745473e-01 2.57670730e-01 6.58531114e-02 6.51129484e-02 1.30579472e-01 2.44420186e-01 6.37457073e-02 6.17645644e-02 1.24716595e-01 1.28265664e-01 3.07132512e-01 3.15872580e-01 2.52260149e-01 1.19966440e-01 2.95434564e-01 2.80891418e-01 2.34226331e-01 4.59549308e-01 6.06003821e-01 5.76172531e-01 5.50917566e-01 4.10097659e-01 5.40792346e-01 5.00204086e-01 4.87329185e-01 5.21635175e-01 3.78988117e-01 4.00262862e-01 4.36927408e-01 5.91885895e-02 2.21776739e-01 5.60426004e-02 1.14060938e-01 3.54063481e-01 4.48329955e-01 3.25729042e-01 3.79318446e-01 5.23568876e-02 1.90610513e-01 4.81669530e-02 9.90219861e-02 2.43855849e-01 1.07056975e-01 2.63643146e-01 2.07191303e-01 7.29169965e-01 8.24314475e-01 7.83736587e-01 7.83736587e-01 8.87781084e-01 9.17130768e-01 8.71983826e-01 8.97238791e-01 7.92247832e-01 8.18439245e-01 7.57012606e-01 7.93677151e-01 8.49548757e-01 8.11405003e-01 8.56953800e-01 8.44078958e-01 6.80400789e-01 7.42079437e-01 6.44236088e-01 6.93275630e-01 7.58041978e-01 7.30161965e-01 6.97378516e-01 7.32786953e-01 6.01867139e-01 6.37795210e-01 5.53701818e-01 6.01867139e-01 6.80400789e-01 6.50704682e-01 7.35610843e-01 6.93275630e-01 9.11235571e-01 8.70322168e-01 8.27479422e-01 8.74144554e-01 7.95962751e-01 6.91014886e-01 6.56998813e-01 7.17969716e-01 7.10309982e-01 6.16655469e-01 5.70373416e-01 6.35099769e-01 6.79808199e-01 7.68511891e-01 8.11652839e-01 7.56780446e-01 9.03043389e-01 8.27682018e-01 8.55044842e-01 8.66378844e-01 7.17969716e-01 5.84275007e-01 6.60513163e-01 6.56998813e-01 7.98811734e-01 7.11368144e-01 7.34885693e-01 7.52146661e-01 7.18376160e-01 8.13178420e-01 7.76667655e-01 7.73248494e-01 5.59511781e-01 4.06506926e-01 3.86496097e-01 4.52490509e-01 2.37880215e-01 6.01119250e-02 5.71528375e-02 1.18123725e-01 2.12282166e-01 5.36433421e-02 4.96172272e-02 1.04489580e-01 1.11845218e-01 2.75434881e-01 2.90896624e-01 2.26170272e-01 5.96695483e-01 4.28439736e-01 5.64979911e-01 5.31969130e-01 2.57320583e-01 9.61276442e-02 2.36728117e-01 1.96349680e-01 5.27823329e-01 3.68231237e-01 4.85583454e-01 4.61828887e-01 3.35536510e-01 4.99303281e-01 3.62763107e-01 4.00262862e-01 9.00333673e-02 2.21720070e-01 1.97449014e-01 1.72194049e-01 3.44886214e-01 4.54798549e-01 4.05013055e-01 4.05013055e-01 2.66420960e-01 3.51327091e-01 2.94257641e-01 3.07132512e-01 3.57795656e-01 2.59952366e-01 2.94257641e-01 3.07132512e-01 4.35131416e-02 1.52119249e-01 3.84402759e-02 8.01776722e-02 2.23143622e-01 2.53511488e-01 1.84185892e-01 2.23143622e-01 3.29972059e-02 1.07782125e-01 2.72363592e-02 5.82521744e-02 1.43454343e-01 6.95498288e-02 1.71276420e-01 1.30579472e-01 5.47233224e-01 6.18638039e-01 5.50917566e-01 5.76172531e-01 6.66269004e-01 6.88295543e-01 6.12949848e-01 6.59614921e-01 5.14685750e-01 5.31701028e-01 4.45331722e-01 5.00204086e-01 5.82715452e-01 5.56552172e-01 6.29998982e-01 5.93334436e-01 5.00204086e-01 5.09000957e-01 4.41889077e-01 4.87329185e-01 4.77745473e-01 4.12875473e-01 3.94337833e-01 4.31080371e-01 3.79318446e-01 3.60646009e-01 3.13094795e-01 3.54063481e-01 4.00262862e-01 4.22731906e-01 4.77891386e-01 4.36927408e-01 6.83871329e-01 6.53166294e-01 5.81666052e-01 6.42636955e-01 5.97360432e-01 5.18598378e-01 4.61828887e-01 5.27823329e-01 4.61454630e-01 4.00611758e-01 3.35536510e-01 4.00262862e-01 4.66288388e-01 5.27131259e-01 5.96695483e-01 5.31969130e-01 6.63882256e-01 5.67716777e-01 5.86485267e-01 6.09009862e-01 4.52490509e-01 3.30382615e-01 3.73492032e-01 3.86496097e-01 5.03440082e-01 4.02248383e-01 4.15546536e-01 4.42469209e-01 4.22602862e-01 5.28283358e-01 5.04564047e-01 4.87329185e-01 4.19906825e-01 3.05078536e-01 2.71682471e-01 3.32653344e-01 1.78526238e-01 4.51132730e-02 4.01748531e-02 8.68399516e-02 1.37909636e-01 3.48495282e-02 2.91885827e-02 6.58531114e-02 7.67159387e-02 1.88924000e-01 2.13855833e-01 1.58983484e-01 4.38667208e-01 2.93871820e-01 3.87526333e-01 3.73940855e-01 1.62172735e-01 5.43560870e-02 1.33859664e-01 1.15507640e-01 3.32653344e-01 2.08219081e-01 2.74576753e-01 2.71682471e-01 1.97387800e-01 3.24373603e-01 2.35669956e-01 2.52260149e-01 2.32465360e-02 9.19932425e-02 1.70806106e-02 4.23355810e-02 1.57204702e-01 2.16374874e-01 1.15507640e-01 1.62172735e-01 1.07501913e-02 4.25416082e-02 4.31624101e-03 1.71911120e-02 7.36511573e-02 2.99073588e-02 1.04257435e-01 6.75929040e-02 4.30930685e-03 4.23355810e-02 1.06122866e-02 1.70806106e-02 1.14564590e-01 2.13855833e-01 1.51075363e-01 1.58983484e-01 1.65074412e-02 8.68399516e-02 2.17682254e-02 4.01748531e-02 1.00060992e-01 2.91885827e-02 7.26981759e-02 6.58531114e-02 2.81985223e-01 3.18779618e-01 2.34226331e-01 2.80891418e-01 3.43323469e-01 3.54673594e-01 2.60599762e-01 3.21570665e-01 1.58767447e-01 1.64016232e-01 6.58531114e-02 1.30579472e-01 2.27168947e-01 2.16969311e-01 3.07132512e-01 2.52260149e-01 2.43855849e-01 1.98431686e-01 1.72268435e-01 2.07191303e-01 1.24716595e-01 3.27324383e-02 3.12627889e-02 6.37457073e-02 9.90219861e-02 2.85917278e-02 2.48219036e-02 5.23568876e-02 5.91885895e-02 1.30402014e-01 1.47417307e-01 1.14060938e-01 3.52393806e-01 3.36571753e-01 2.47299254e-01 3.13293666e-01 3.07815403e-01 2.67229885e-01 1.96349680e-01 2.57320583e-01 1.42346993e-01 1.23578519e-01 4.96172272e-02 1.04489580e-01 1.81780398e-01 2.05499709e-01 2.90896624e-01 2.26170272e-01 3.23651016e-01 2.21321791e-01 2.28638589e-01 2.58924693e-01 1.18123725e-01 2.61924677e-02 2.96101496e-02 5.71528375e-02 1.31424233e-01 3.18899304e-02 3.29441950e-02 6.54298216e-02 6.24920987e-02 1.62961960e-01 1.55645147e-01 1.27218455e-01 2.16374874e-01 1.57204702e-01 1.15507640e-01 1.62172735e-01 9.19932425e-02 2.32465360e-02 1.70806106e-02 4.23355810e-02 4.25416082e-02 1.07501913e-02 4.31624101e-03 1.71911120e-02 2.99073588e-02 7.36511573e-02 1.04257435e-01 6.75929040e-02 2.13855833e-01 1.14564590e-01 1.51075363e-01 1.58983484e-01 4.23355810e-02 4.30930685e-03 1.06122866e-02 1.70806106e-02 8.68399516e-02 1.65074412e-02 2.17682254e-02 4.01748531e-02 2.91885827e-02 1.00060992e-01 7.26981759e-02 6.58531114e-02 1.31635711e-01 3.24171811e-01 5.04250169e-01 6.64950490e-01 6.51129484e-02 6.58531114e-02 6.17645644e-02 6.37457073e-02 8.00097108e-01 9.04496491e-01 9.74136531e-01 1.00634110e+00 9.99872506e-01 9.54979360e-01 8.73386919e-01 7.58230746e-01 6.64950490e-01 5.04250169e-01 3.24171811e-01 1.31635711e-01 6.58531114e-02 6.51129484e-02 6.37457073e-02 6.17645644e-02 5.60426004e-02 5.91885895e-02 4.81669530e-02 5.23568876e-02 6.01119250e-02 5.71528375e-02 5.36433421e-02 4.96172272e-02 3.84402759e-02 4.35131416e-02 2.72363592e-02 3.29972059e-02 4.51132730e-02 4.01748531e-02 3.48495282e-02 2.91885827e-02 1.70806106e-02 2.32465360e-02 4.31624101e-03 1.07501913e-02 1.06122866e-02 4.30930685e-03 2.17682254e-02 1.65074412e-02 3.27324383e-02 3.12627889e-02 2.85917278e-02 2.48219036e-02 2.61924677e-02 2.96101496e-02 3.18899304e-02 3.29441950e-02 2.32465360e-02 1.70806106e-02 1.07501913e-02 4.31624101e-03 4.30930685e-03 1.06122866e-02 1.65074412e-02 2.17682254e-02 
POINT_DATA 289
FIELD FieldData 2
Velocity 3 289 float