<?xml version="1.0"?>
<VTKFile type="UnstructuredGrid"  version="0.1"  >
<UnstructuredGrid>
<Piece  NumberOfPoints="1385" NumberOfCells="2640">
<Points>
<DataArray  type="Float64"  NumberOfComponents="3"  format="ascii">0 0 0  1 0 0  1 1 0  0 1 0  0.5 0 0  1 0.5 0  0.5 1 0  0 0.5 0  0.5 0.5 0  0 0.25 0  0.25 0 0  0.25 1 0  0 0.75 0  1 0.25 0  0.75 0 0  1 0.75 0  0.75 1 0  0.7083333333333333 0.2916666666666667 0  0.2916666666666666 0.7083333333333334 0  0.375 0.25 0  0.75 0.625 0  0.2569444444444444 0.4652777777777778 0  0.5366379310344828 0.7535919540229885 0  0.1875 0.1875 0  0.8125 0.8125 0  0.869047619047619 0.375 0  0.1450441919191919 0.6052714646464646 0  0.375 0.8690476190476191 0  0.5526960784313725 0.1825980392156862 0  0.8385416666666666 0.1614583333333334 0  0.1614583333333333 0.8385416666666667 0  0.6736111111111112 0.4652777777777778 0  0.1367521367521368 0.3477564102564102 0  0.6570970491253563 0.8648656830417855 0  0.5102479397556124 0.3386260301221938 0  0.3654513888888889 0.5737847222222222 0  0.6929750044954185 0.1362784921584263 0  0.388576102743835 0.411911725237599 0  0.6091269841269842 0.5942460317460317 0  0.875 0.6875 0  0.427278890279516 0.119889445139758 0  0.8544456845238095 0.5213913690476191 0  0.125 0 0  0 0.125 0  1 0.875 0  0.875 1 0  0.1280008648150532 0.4769292340226777 0  0.2695382451711197 0.3321750950221553 0  0.7031567235715964 0.7447810921428012 0  0.625 0 0  0.375 0 0  0.125 1 0  0.875 0 0  0 0.375 0  0 0.625 0  1 0.375 0  0.375 1 0  1 0.125 0  0 0.875 0  0.625 1 0  1 0.625 0  0.2979288363930608 0.1201429454643536 0  0.410919540229885 0.7484605911330049 0  0.5325041980395562 0.878905151526474 0  0.4831670727569156 0.6331060043826487 0  0.1735997378973042 0.7204747378973043 0  0.2534919507575758 0.5772372159090909 0  0.2633928571428572 0.8876488095238095 0  0.8199404761904761 0.2730654761904762 0  0.75830270586982 0.3919383189517417 0  0.5750282248382511 0.4237522353023667 0  0.6008360210023379 0.2794828358598495 0  0.08163442644334186 0.6821295860397322 0  0.08333333333333333 0.1875 0  0.2028380815996574 0.08844602719988583 0  0.2766521142611967 0.2325436572164097 0  0.90625 0.78125 0  0.890625 0.890625 0  0.7545696325008384 0.8973565441669461 0  0.5625 0.08086590340834317 0  0.09077380952380953 0.09077380952380952 0  0.4610923478694773 0.209034015149656 0  0.7542527598351648 0.5248380520595106 0  0.6459235536037465 0.3619913988405765 0  0.7560381768882634 0.20506142233852 0  0.07073252688172042 0.8125 0  0.0924753097241701 0.9078102849914793 0  0.9292674731182795 0.1875 0  0.9075246902758297 0.09218971500852073 0  0.8125 0.07073252688172045 0  0.2400955776842301 0.7869705776842302 0  0.9121050213379069 0.2781978201831695 0  0.7916878157143976 0.7239689078571988 0  0.9345238095238094 0.4375 0  0.4375 0.9345238095238095 0  0.3725616989755203 0.6651895248862173 0  0.06536271996350887 0.5625 0  0.9348362560379583 0.5625 0  0.456646798987055 0.8277247094351965 0  0.1875 0.9355758238725954 0  0.6169761231634859 0.6939779188977889 0  0.6226854751147515 0.7827911461419014 0  0.3305695598137626 0.7901697871282585 0  0.5865305325818898 0.5101085479043448 0  0.6622701297028378 0.2177663989757395 0  0.1354166666666667 0.2591702279202279 0  0 0.3125 0  0.2094429575680048 0.3936361846162499 0  0.836666296419157 0.607917407161686 0  0.6875 1 0  0.214261555450504 0.6492551722020035 0  0 0.4375 0  0.07731537126068377 0.40625 0  0.3427725432967068 0.4879566233699599 0  0.3550792513951871 0.3331953632609953 0  0.4462473953896857 0.2887834789342508 0  0.4747801464819794 0.417386052030127 0  0.8229836475148948 0.4443292349237342 0  0.7322605135514757 0.8199240278289671 0  0.6756431877205955 0.5468989748126787 0  0.1968419507215863 0.5194573482612496 0  0.3285590277777778 0.9345238095238095 0  0.8125 1 0  0.4198917601920009 0.5134893045331258 0  0.5232405503206691 0.2595791787880157 0  1 0.9375 0  0.1987510870015086 0.3025185951894431 0  0.5625 1 0  0.6005390654136388 0.9228110509230952 0  0.6411254848194414 0.07704872765442942 0  0.3357233162523242 0.1855113224530532 0  0.6730653396610877 0.6393887462324165 0  0.310966987234063 0.6240019765311626 0  0.7368737836204349 0.07457755202327881 0  0.6192316414418171 0.1485238406378594 0  0.5432429670607106 0.678552703844006 0  0.4754371679695679 0.7103946803120881 0  0.07501324890749672 0.3043839897335739 0  0.5358146975860403 0.5688321463205916 0  0.3115271739500156 0.3982137365971444 0  0.3625191397122174 0.0767854603650549 0  0.5024029442563831 0.1264128223758444 0  0.4375 0 0  0.4699946908887376 0.06379961173775725 0  0.9375 0.71875 0  0.9272105898044465 0.635671179608893 0  0.9375 1 0  0.6690971819568612 0.9331530898202766 0  0.1073454944778885 0.7499206387638554 0  0.8699082999280406 0.2232403652524313 0  0.5773118091863964 0.3548027349159383 0  0.1354166666666667 0.1428571428571428 0  0.3125 0 0  0.8241684193077341 0.9257452995055244 0  0.4352314948354036 0.3586940847489378 0  0.4351301473778832 0.5819726043539077 0  0.8073232928518163 0.3419398170341962 0  0.7775949246947366 0.1298519409204575 0  0.6875 0 0  0.7413513991851041 0.457933324954483 0  0.939453125 0.841796875 0  0.5630355154606987 0.8171875156478349 0  0.9345238095238095 0.3461466592368577 0  0.9375 0 0  1 0.0625 0  0.0625 1 0  0 0.9375 0  0.06552178593177167 0.4969053669623468 0  0.1424866619031703 0.4130277709291224 0  0.1275287182444726 0.5422946908002588 0  0.2637686595586339 0.06413888464529549 0  0.2524263535491086 0.1697437503243817 0  0.7367218397988525 0.6888573970660841 0  0.0625 0 0  0 0.0625 0  0.8463594539285995 0.7578283617857982 0  0.3128751192101563 0.2851997374369947 0  0.4015281788351144 0.1806421385113692 0  0.1910251795116588 0.4553332197174453 0  0.287797471442006 0.5222621440543902 0  0.3962628745986055 0.8097380085535307 0  0.3505895299554843 0.7304878890838692 0  0.5019151500495276 0.9356042615328103 0  0.9374389419410134 0.4999931039076005 0  0.3125 1 0  0.1875 1 0  1 0.5625 0  0.4375 1 0  1 0.3125 0  1 0.4375 0  0.8125 0 0  1 0.1875 0  0.5625 0 0  0.1875 0 0  0 0.1875 0  0 0.5625 0  0 0.6875 0  0 0.8125 0  1 0.6875 0  1 0.8125 0  0.8021696218581627 0.6612893947866073 0  0.06154922295426143 0.6239401126946708 0  0.9359375 0.9359375 0  0.4666158024849896 0.7691515918155014 0  0.2318201265217025 0.7064974250277525 0  0.1565954253579966 0.6635489312486841 0  0.1598132503680848 0.7787147500325552 0  0.3146529991605639 0.8510876378205265 0  0.1461873209418733 0.05982804528877814 0  0.06109554988524315 0.2446551776247686 0  0.8054950308560754 0.5564226538848541 0  0.470541749491976 0.8853316336952531 0  0.6948472567465137 0.4042308563372457 0  0.8802828472348889 0.4658893256343853 0  0.6788075634946739 0.7974194205806069 0  0.2155048659603867 0.2428201584940968 0  0.8131223143423806 0.2132171049028394 0  0.4330798005432235 0.6671274900735726 0  0.6015279126162613 0.2187368078743274 0  0.8061636571464289 0.8703766630361714 0  0.7008230445061776 0.3478568388444072 0  0.8638466246958771 0.3147095987735538 0  0.204801534004265 0.8789209409594009 0  0.2449006736431132 0.9424182882803838 0  0.7611268409371427 0.2643056884799992 0  0.7552800864046191 0.7678006649959446 0  0.5983639638906616 0.864113435029236 0  0.1956559506814437 0.577281203577426 0  0.3527670268164207 0.1320469097565204 0  0.7530364577483248 0.3262386077083089 0  0.4535919187979363 0.4690107087451527 0  0.8824869791666666 0.8336588541666666 0  0.8814453125 0.9451171875 0  0.5582987942628019 0.622421666543858 0  0.6817532446064828 0.6939001801354731 0  0.3830295138888889 0.9450968952922078 0  0.4140603937012541 0.05211333372716105 0  0.5535864501303013 0.3060591985391672 0  0.6560130086346878 0.2729726562211558 0  0.890203140221684 0.5948314305427268 0  0.7043857725999024 0.593980890020804 0  0.5105843922695152 0.8016828014338627 0  0.05365910753708378 0.7315110031682004 0  0.616904573672261 0.4621186633436136 0  0.5338511646455415 0.387875898899613 0  0.5231769258947843 0.4477682463140762 0  0.650302973237622 0.7370722302085519 0  0.3927483139621257 0.4662414504529014 0  0.8034595960585199 0.4972538342758211 0  0.7738337841682438 0.9496376207663251 0  0.7193737507158268 0.954685447650112 0  0.482525916480686 0.5528257169991676 0  0.2533501157346781 0.2809495420003238 0  0.3118487924482243 0.5702930126570319 0  0.6257598847669529 0.4104163315430518 0  0.1354166666666667 0.1955605158730158 0  0.04166666666666666 0.15625 0  0.3956448985530264 0.6174149462065157 0  0.8102897701818546 0.3938784238208349 0  0.2641154190013625 0.8344469561943118 0  0.642852220770013 0.5068794586563659 0  0.05271458179508221 0.355846947336007 0  0.7021551360070266 0.8921457280225779 0  0.5692125776683765 0.1328512638850284 0  0.5206162811937602 0.04865158770992991 0  0.6001838442201555 0.04540556991297563 0  0.2597716608242787 0.4118346398477178 0  0.4040584599473195 0.3179589136784675 0  0.1480337679295207 0.8941560631483065 0  0.1344356707112281 0.9466251177415842 0  0.7114696411829317 0.4983917389078826 0  0.7585704698442475 0.5751926345944629 0  0.2189131956390871 0.04022068508159698 0  0.2476935455192043 0.1123642267635843 0  0.185995005654517 0.1365524537205238 0  0.6223414373308711 0.643380839165121 0  0.5732602596637543 0.7190051747306219 0  0.268358222364537 0.6586246524467934 0  0.3265879848129173 0.2369791782191225 0  0.1267095595787346 0.7034787238999181 0  0.1115202922226038 0.6421997933884982 0  0.3128688392940203 0.07260997451790079 0  0.550724900485678 0.9253360991633187 0  0.7142608810459105 0.2384904702214873 0  0.7045869185243887 0.1871826897887429 0  0.890625 0.734375 0  0.953125 0.765625 0  0.2111812642821677 0.8286209446459138 0  0.9590293078204457 0.09375 0  0.953431269039847 0.1435719386408004 0  0.04097069217955424 0.90625 0  0.04656873096015299 0.8564280613591996 0  0.1078743037981226 0.8541621766048062 0  0.8921256962018773 0.1458378233951939 0  0.8521576979194619 0.1084496634207678 0  0.8655663982740958 0.05464346096571447 0  0.04005659640905543 0.09375 0  0.1001448316533417 0.04246776244228261 
[...]
<CellData  Vectors="f_8394-1"> 
<DataArray  type="Float64"  Name="f_8394-1"  NumberOfComponents="3" format="ascii">2.2132765298791862e-04  1.8287263062416413e-04 0.0000000000000000e+00  4.2343088236441148e-05  8.5185449579166625e-05 0.0000000000000000e+00  6.7440126701047689e-05  7.7445405141498178e-05 0.0000000000000000e+00  2.7787631640079125e-05  2.9987961728141144e-05 0.0000000000000000e+00  9.3611717723635348e-05  1.8751112010208929e-04 0.0000000000000000e+00  7.2718592563478040e-05  5.4891463148271193e-05 0.0000000000000000e+00  3.8238551999053849e-05  6.1727547959660595e-04 0.0000000000000000e+00  4.5339867912891906e-05  8.7301303975140189e-04 0.0000000000000000e+00  7.4903644327077958e-04  2.2030465862883295e-05 0.0000000000000000e+00  3.3696405065622795e-04  1.6762528586040433e-05 0.0000000000000000e+00  1.3357634278093444e-04  4.5247716076414048e-05 0.0000000000000000e+00  5.3538136221432063e-04  6.4017291928199107e-04 0.0000000000000000e+00  4.2166072826347884e-04  7.8859553418860709e-04 0.0000000000000000e+00  6.1840896147113912e-04  4.5228215519204794e-04 0.0000000000000000e+00  7.7265124195431299e-04  3.6087799932113578e-04 0.0000000000000000e+00  6.5723968571475147e-04  2.3833998343259210e-04 0.0000000000000000e+00  4.5421482214708873e-04  5.0515864380019698e-04 0.0000000000000000e+00  1.9716139241671387e-04  2.1867629532654957e-04 0.0000000000000000e+00  1.0334120218135655e-04  5.4253011162803890e-04 0.0000000000000000e+00  3.1186688795950437e-04  9.1026227348515494e-05 0.0000000000000000e+00  3.3524393421156031e-04  5.2363685559417781e-05 0.0000000000000000e+00  6.0858121619667977e-04  2.2455175874713622e-04 0.0000000000000000e+00  6.6812136185484625e-04  2.1426918741825524e-04 0.0000000000000000e+00  8.0605526846779302e-05  6.0193624541741248e-04 0.0000000000000000e+00  1.1310413636600552e-04  2.8622381364552932e-04 0.0000000000000000e+00  1.4084220675122532e-04  6.9965462480271051e-04 0.0000000000000000e+00  8.2583590064594528e-06  4.2603830265097903e-05 0.0000000000000000e+00  5.3842681031009186e-04  4.8469557724605702e-05 0.0000000000000000e+00  4.7734941958929816e-05  8.5622450119599155e-04 0.0000000000000000e+00  3.2311273232719592e-04  3.1893729123495956e-05 0.0000000000000000e+00  7.3098988237913810e-04  1.0047486469564958e-04 0.0000000000000000e+00  2.9753334155298826e-04  4.0982962025529326e-04 0.0000000000000000e+00  3.1498626452898694e-04  1.4847899954803631e-04 0.0000000000000000e+00  4.5109724581968098e-04  7.1806861684565939e-04 0.0000000000000000e+00  1.4092821912761836e-04  5.5016907432037223e-05 0.0000000000000000e+00  1.6906778646463358e-04  1.0667586602129532e-04 0.0000000000000000e+00  2.1362352155653109e-04  2.9516858430286087e-04 0.0000000000000000e+00  1.0898774066969573e-04  6.3011816088247513e-04 0.0000000000000000e+00  4.7947248122396047e-04  3.1228463664549253e-05 0.0000000000000000e+00  1.8690541230838710e-04  1.8758035526414386e-04 0.0000000000000000e+00  1.7900937325893748e-04  1.7872394543382413e-04 0.0000000000000000e+00  3.2561525016868472e-04  1.8383364179902980e-04 0.0000000000000000e+00  7.0911341604660042e-04  3.2741734823787759e-04 0.0000000000000000e+00  7.7469968456060558e-04  3.4408092641776571e-04 0.0000000000000000e+00  1.1129830356589962e-04  1.8817099771307863e-05 0.0000000000000000e+00  9.2130327543286873e-04  4.5426595946990546e-04 0.0000000000000000e+00  6.5290806358445238e-04  3.2941993653736129e-04 0.0000000000000000e+00  6.1962767646785074e-05  3.8863329588804318e-05 0.0000000000000000e+00  8.9812124766451464e-04  6.7110854115760659e-04 0.0000000000000000e+00  8.5569373565227351e-04  5.3454227857218360e-04 0.0000000000000000e+00  7.4300965540272307e-04  7.0103388429756496e-04 0.0000000000000000e+00  8.2839990515432655e-04  7.9281906327070394e-04 0.0000000000000000e+00  8.5570899240091524e-05  3.3007846518328234e-04 0.0000000000000000e+00  1.5889924379088418e-04  9.9199704577470244e-05 0.0000000000000000e+00  8.9126502878394159e-05  1.8948537169915822e-04 0.0000000000000000e+00  5.5775773529658022e-04  5.6217172635659269e-04 0.0000000000000000e+00  4.3996723886115561e-04  4.0122177845956699e-04 0.0000000000000000e+00  4.1802509894757299e-04  5.6878599712320182e-05 0.0000000000000000e+00  1.5816895284376942e-04  3.0948681739266801e-05 0.0000000000000000e+00  3.1474135680092220e-05  7.7278536842595490e-04 0.0000000000000000e+00  4.1991468482122167e-05  7.5688603403565398e-04 0.0000000000000000e+00  6.9472329889707989e-04  3.7080458368131019e-05 0.0000000000000000e+00  3.0448118989244145e-05  1.4206364050194464e-04 0.0000000000000000e+00  4.0077277818112580e-05  3.5547929156218408e-04 0.0000000000000000e+00  4.2206070695205314e-05  3.8722717725530519e-04 0.0000000000000000e+00  6.4554509625593332e-04  1.3025936305380824e-04 0.0000000000000000e+00  8.4989916411695303e-05  5.8407275909742168e-04 0.0000000000000000e+00  8.1081695524416915e-04  2.1837549048461177e-05 0.0000000000000000e+00  3.8738522763927084e-05  8.5257180752774746e-04 0.0000000000000000e+00  2.8816778643352494e-04  9.1298600021531568e-04 0.0000000000000000e+00  3.1234148667791297e-04  8.4371701632115115e-04 0.0000000000000000e+00  7.4414303669491963e-04  4.2230007765776050e-04 0.0000000000000000e+00  6.9918572376483250e-05  1.0465713663613597e-04 0.0000000000000000e+00  2.1993319469382170e-04  3.4086867918773077e-04 0.0000000000000000e+00  3.6688646414081299e-04  4.9674051834919708e-04 0.0000000000000000e+00  2.0355725114605221e-04  6.7440417098959030e-04 0.0000000000000000e+00  2.9833980378843534e-04  6.8443534404885630e-04 0.0000000000000000e+00  2.8414416285987615e-04  4.6104144157689065e-04 0.0000000000000000e+00  2.2093635437508600e-04  5.7953989137782876e-04 0.0000000000000000e+00  2.9141047106651463e-05  4.6276193504925451e-04 0.0000000000000000e+00  2.8391970303648748e-05  3.6534481680339139e-04 0.0000000000000000e+00  3.4324662548011739e-05  3.2372032141046324e-04 0.0000000000000000e+00  8.8678630287017477e-05  2.7109390432859863e-04 0.0000000000000000e+00  6.5989262753473135e-05  8.8392324767950831e-04 0.0000000000000000e+00  7.6627133477436004e-04  9.6498769211453793e-05 0.0000000000000000e+00  5.0319464339715163e-04  5.7040725852467977e-05 0.0000000000000000e+00  4.7387918205308883e-04  1.6314415834522191e-04 0.0000000000000000e+00  7.2941324693432850e-04  1.4103568544012243e-04 0.0000000000000000e+00  4.6419516953752230e-04  2.3988775852401881e-04 0.0000000000000000e+00  2.8934463923268098e-04  2.0097077748103604e-04 0.0000000000000000e+00  4.0047049516218360e-04  5.2343174920056945e-05 0.0000000000000000e+00  3.7679152647828899e-04  1.0990946734878622e-04 0.0000000000000000e+00  2.4033536078845006e-05  5.8026569526173837e-05 0.0000000000000000e+00  3.9489399507672652e-05  1.1930399108052047e-05 0.0000000000000000e+00  6.8809684870834887e-05  7.0423072180476927e-05 0.0000000000000000e+00  1.0935254616495687e-04  5.9990277582294518e-05 0.0000000000000000e+00  1.4710424815422219e-04  3.9427434268833967e-05 0.0000000000000000e+00  5.6905755553240261e-04  9.1017464834167226e-04 0.0000000000000000e+00  5.5425368653470809e-04  8.3565724030287283e-04 0.0000000000000000e+00  2.6097801468182952e-04  5.5227435192646797e-05 0.0000000000000000e+00  2.1786370818067363e-04  4.3814882211473604e-05 0.0000000000000000e+00  2.3403764112203194e-04  1.0239319144297496e-04 0.0000000000000000e+00  2.1454108141762655e-04  6.9212424769351123e-05 0.0000000000000000e+00  4.6143278756119373e-04  3.5919732557223021e-04 0.0000000000000000e+00  4.4642814763059093e-04  3.0433131355646245e-04 0.0000000000000000e+00  5.9306849203837834e-04  1.5938928400180096e-04 0.0000000000000000e+00  4.5764439380228462e-04  2.0881927912824440e-04 0.0000000000000000e+00  5.1173430373930174e-04  6.9756789946373330e-05 0.0000000000000000e+00  4.3581717765640154e-04  3.8060587888979507e-05 0.0000000000000000e+00  2.3095633287907224e-05  7.3897739010846293e-04 0.0000000000000000e+00  3.5893404609772441e-05  7.4293146278004308e-04 0.0000000000000000e+00  8.5030061539949819e-04  2.6844390900976152e-05 0.0000000000000000e+00  8.1524845290904596e-04  6.0361968542246107e-05 0.0000000000000000e+00  6.3405505996050652e-04  2.3323669013419181e-05 0.0000000000000000e+00  6.0887465081129084e-04  1.3078738827354200e-05 0.0000000000000000e+00  4.9303600511973412e-05  6.1365064185751677e-04 0.0000000000000000e+00  9.8353162162514182e-05  4.4777767812896174e-04 0.0000000000000000e+00  8.3928589140559002e-04  9.4303726654933309e-05 0.0000000000000000e+00  6.9892772292248285e-04  4.6182130279036495e-04 0.0000000000000000e+00  5.9873314291296179e-04  5.3581664543957326e-04 0.0000000000000000e+00  2.5972872930928124e-04  7.2736170221998002e-04 0.0000000000000000e+00  2.5495635161799609e-04  8.5176987847484847e-04 0.0000000000000000e+00  7.7286395353157498e-05  3.3212160602238863e-04 0.0000000000000000e+00  1.4987246305394781e-04  3.9221701120865997e-04 0.0000000000000000e+00  2.6178619820934997e-05  3.0058900820915447e-04 0.0000000000000000e+00  4.4676509713152095e-05  3.0255242021826593e-04 0.0000000000000000e+00  7.8877294296147169e-04  2.5452318268685630e-04 0.0000000000000000e+00  8.4862900048168581e-04  3.1079002996907553e-04 0.0000000000000000e+00  2.0947279804556503e-04  7.9476565047464736e-04 0.0000000000000000e+00  2.1021684780191531e-04  4.6296089429523183e-04 0.0000000000000000e+00  3.2618100652162622e-04  3.6601695719272161e-04 0.0000000000000000e+00  3.7028665095382789e-04  3.4132716981071041e-04 0.0000000000000000e+00  3.4707758278910175e-04  7.2727251004611249e-04 0.0000000000000000e+00  3.1028491677909901e-04  7.0877262970636624e-04 0.0000000000000000e+00  1.5969043968629403e-04  7.1126734597207501e-04 0.0000000000000000e+00  1.9277451070324637e-04  7.9592035126021675e-04 0.0000000000000000e+00  4.2068867085655911e-04  3.9074699922079674e-04 0.0000000000000000e+00  2.6978160984073734e-04  4.1292740004999362e-04 0.0000000000000000e+00  4.7682044927077339e-04  5.4560466834169953e-05 0.0000000000000000e+00  5.1704943203445834e-04  8.4006001512423726e-05 0.0000000000000000e+00  4.9569578050520366e-05  7.2418650027680306e-05 0.0000000000000000e+00  3.7819186603870639e-05  5.1341253488328644e-05 0.0000000000000000e+00  2.2203697948401402e-05  1.1389721339399274e-04 0.0000000000000000e+00  3.8896610420926894e-05  7.6924150171900588e-05 0.0000000000000000e+00  4.6116819078709165e-05  2.8056515710781383e-04 0.0000000000000000e+00  6.3973281474548577e-05  1.7446872760974310e-04 0.0000000000000000e+00  8.4224746179499305e-04  4.3100640337510041e-04 0.0000000000000000e+00  6.5429345707360967e-04  3.8100031625373603e-04 0.0000000000000000e+00  4.2194642655581088e-04  7.3009515197491068e-04 0.0000000000000000e+00  4.6842184727700030e-04  8.5955167312507289e-04 0.0000000000000000e+00  6.6079665260853786e-05  4.9497261439864133e-04 0.0000000000000000e+00  7.5703018500378994e-05  4.2544065258143542e-04 0.0000000000000000e+00  2.2371097778616553e-05  2.0145123367136257e-04 0.0000000000000000e+00  1.8137180490412481e-05  1.2205159885551380e-04 0.0000000000000000e+00  3.0632997906337662e-05  1.6664847496931015e-04 0.0000000000000000e+00  1.0624440957694564e-04  2.7866708002828692e-04 0.0000000000000000e+00  1.3513417315555223e-04  2.1455999154226712e-04 0.0000000000000000e+00  2.4826462390953888e-04  5.6872279005175795e-05 0.0000000000000000e+00  2.3333787939665998e-04  1.3591920400616957e-04 0.0000000000000000e+00  1.6431506127533921e-04  2.2822986945300814e-04 0.0000000000000000e+00  1.5730944623173075e-04  1.2524913888919959e-04 0.0000000000000000e+00  2.9369069862163720e-04  1.7669255352798958e-04 0.0000000000000000e+00  2.6752126625703162e-04  2.7561031391094322e-04 0.0000000000000000e+00  7.7545739827940025e-04  2.0266061856864275e-04 0.0000000000000000e+00  6.3354554000263647e-04  2.3980334243026171e-04 0.0000000000000000e+00  5.8881624043054541e-04  5.8675223947910848e-04 0.0000000000000000e+00  5.4768085568797191e-04  6.1066320167551299e-04 0.0000000000000000e+00  4.7542217055135492e-04  3.1829836754080628e-04 0.0000000000000000e+00  3.7199798310818047e-04  2.2700341569101666e-04 0.0000000000000000e+00  6.4138583583925354e-05  2.2013823253495737e-04 0.0000000000000000e+00  6.9030818908533657e-05  1.4788895597863560e-04 0.0000000000000000e+00  1.5622279451551219e-04  7.5256732982758288e-04 0.0000000000000000e+00  1.1298132979566113e-04  9.2996118709801838e-04 0.0000000000000000e+00  7.8668134090981471e-04  9.7168420058392198e-04 0.0000000000000000e+00  7.4222957289182974e-04  8.6474101500023243e-04 0.0000000000000000e+00  2.4852806329747927e-04  2.9002798656041175e-04 0.0000000000000000e+00  2.1294125953232184e-04  3.6017535003802554e-04 0.0000000000000000e+00  4.5905646407308758e-04  7.9541858184665261e-05 0.0000000000000000e+00  2.9741978835730554e-04  9.3040922262141240e-05 0.0000000000000000e+00  8.6928182853317757e-04  8.3562320418007993e-04 0.0000000000000000e+00  8.1307694904042354e-04  8.3964807734152947e-04 0.0000000000000000e+00  4.5297957173682603e-05  1.2433741912003777e-04 0.0000000000000000e+00  3.2412697333343563e-05  1.4582492422066925e-04 0.0000000000000000e+00  2.6125483343542207e-04  9.0444912749054057e-04 0.0000000000000000e+00  3.7076946189090195e-04  9.1395327114583409e-04 0.0000000000000000e+00  4.3286135279828092e-04  8.4639488052610525e-04 0.0000000000000000e+00  3.7361258493135232e-04  8.8662339080465883e-04 0.0000000000000000e+00  5.4400980567722028e-04  2.5865928058665545e-05 0.0000000000000000e+00  1.7237735751802414e-04  6.4817199333625370e-05 0.0000000000000000e+00  1.8161239316531047e-04  6.4048172708926337e-05 0.0000000000000000e+00  4.5531362056811143e-04  3.8937964571363515e-04 0.0000000000000000e+00  4.4436612098568465e-04  4.3812427211982962e-04 0.0000000000000000e+00  1.0282989921132977e-04  3.8433917920928411e-04 0.0000000000000000e+00  8.4899259818116350e-05  3.7946449580430835e-04 0.0000000000000000e+00  4.8689960093534695e-04  2.1560459546764171e-05 0.0000000000000000e+00  4.8809312751604556e-04  3.2452707932557424e-05 0.0000000000000000e+00  4.1478071149928268e-04  5.3106644006817637e-05 0.0000000000000000e+00  4.0525879800970435e-04  5.4828822310013929e-05 0.0000000000000000e+00  2.3694849084494667e-04  5.7428773654079161e-04 0.0000000000000000e+00  2.2154536382061913e-04  4.3885530049471823e-04 0.0000000000000000e+00  1.8892655020110626e-04  4.3370512255920350e-04 0.0000000000000000e+00  2.1946670783591534e-04  4.9074071263251185e-04 0.0000000000000000e+00  4.1230822848042263e-05  5.8228688984815623e-05 0.0000000000000000e+00  4.3569760007820318e-05  1.3200183522821401e-04 0.0000000000000000e+00  3.3814990603647517e-04  3.1152088901940678e-04 0.0000000000000000e+00  3.7584395408121426e-04  3.1960256451262029e-04 0.0000000000000000e+00  1.6805232623531214e-04  1.8593122445561403e-04 0.0000000000000000e+00  6.8000153845605918e-05  2.1914089635399192e-04 0.0000000000000000e+00  1.8376322389208676e-04  1.9569976508088456e-05 0.0000000000000000e+00  2.5923940967708379e-04  5.5748910544576616e-05 0.0000000000000000e+00  2.6343427763217072e-04  3.9909628022935001e-05 0.0000000000000000e+00  2.1942874546334069e-04  4.8650260613821048e-05 0.0000000000000000e+00  1.5573826628370770e-04  6.1153839159302242e-05 0.0000000000000000e+00  2.1376887554947236e-04  4.5728825727011377e-05 0.0000000000000000e+00  1.7909061349223436e-04  3.0592940598578674e-05 0.0000000000000000e+00  8.7429076906013134e-04  4.6614535423744179e-04 0.0000000000000000e+00  8.7543219293865766e-04  5.4217281644461054e-04 0.0000000000000000e+00  8.0995630025366798e-04  4.5362011036356113e-04 0.0000000000000000e+00  8.4206114750544510e-04  8.4767432111938204e-04 0.0000000000000000e+00  5.3466334616486750e-04  9.3399360685818549e-04 0.0000000000000000e+00  2.9145019986152310e-05  5.5503784556136461e-04 0.0000000000000000e+00  2.9272488654652078e-05  5.7092446207191393e-04 0.0000000000000000e+00  6.8507778337675049e-04  7.5291663249552334e-05 0.0000000000000000e+00  8.4401208257574507e-04  6.3745120970255508e-05 0.0000000000000000e+00  3.4320810500004247e-04  2.0470525378216820e-04 0.0000000000000000e+00  2.0310814178104266e-04  1.5398388074497620e-04 0.0000000000000000e+00  6.2597242454555263e-05  3.5424467987469203e-05 0.0000000000000000e+00  3.8310358393578023e-05  5.8518655572457124e-05 0.0000000000000000e+00  6.8883779419463137e-04  7.1407598795641784e-04 0.0000000000000000e+00  7.8788603986771700e-04  7.2294513548363344e-04 0.0000000000000000e+00  1.5752505111411546e-04  1.1913159395367251e-04 0.0000000000000000e+00  2.1888041676758799e-04  1.0743819566699756e-04 0.0000000000000000e+00  1.1594908570886940e-04  5.2265692866797567e-04 0.0000000000000000e+00  1.3435542654564924e-04  3.7486189145934009e-04 0.0000000000000000e+00  6.5947673762688046e-04  7.9489927963200649e-05 0.0000000000000000e+00  7.4372139421156468e-04  1.1102679056965151e-04 0.0000000000000000e+00  7.5888438752728894e-04  3.9992011524568476e-05 0.0000000000000000e+00  5.6355192896171042e-04  3.4404772011621234e-05 0.0000000000000000e+00  4.7517013666772441e-04  1.5000719888683686e-05 0.0000000000000000e+00  4.9539979508452425e-04  2.2626606315170682e-04 0.0000000000000000e+00  5.6161069189938461e-04  1.2466534133312110e-04 0.0000000000000000e+00  8.5391322865621623e-04  7.3546182747767847e-04 0.0000000000000000e+00  2.8208064894937382e-04  6.9130232319923222e-04 0.0000000000000000e+00  2.5802777495359807e-04  5.3796982081161140e-04 0.0000000000000000e+00  8.3215185073689970e-04  1.6366716417758745e-04 0.0000000000000000e+00  7.6034644995576185e-04  1.9682837061275448e-04 0.0000000000000000e+00  9.9918268352428095e-04  5.5224108236382637e-06 0.0000000000000000e+00  1.9870337048480367e-05  8.6847297076869082e-04 0.0000000000000000e+00  8.1451186754630664e-06  9.9681907282249123e-04 0.0000000000000000e+00  3.9964159442575630e-05  1.8975707184428227e-04 0.0000000000000000e+00  2.3266103157446395e-05  2.8453246569002587e-04 0.0000000000000000e+00  2.4067979953191031e-05  2.0494367436065078e-04 0.0000000000000000e+00  3.2025875179782742e-05  1.5138214963742467e-04 0.0000000000000000e+00  7.5176327245783219e-05  2.2951567505983080e-04 0.0000000000000000e+00  6.5114707630608976e-05  3.3308237976015264e-04 0.0000000000000000e+00  9.4837907352282000e-05  5.4595833693673702e-05 0.0000000000000000e+00  8.5763617308589972e-05  2.2100653549406001e-05 0.0000000000000000e+00  5.7441767097628115e-05  5.6718114093361286e-05 0.0000000000000000e+00  7.8232640836004073e-05  3.3151368345524744e-05 0.0000000000000000e+00  4.9719039843828909e-04  4.8706836866031853e-04 0.0000000000000000e+00  5.6912850351286835e-04  4.7100986669834204e-04 0.0000000000000000e+00  2.6114683560036998e-05  -1.4973176623013825e-06 0.0000000000000000e+00  2.6878005004595397e-05  2.8991769529375451e-06 0.0000000000000000e+00  2.6163481546214813e-05  5.1140949947588746e-05 0.0000000000000000e+00  7.8002371429521252e-04  6.0685495384225419e-04 0.0000000000000000e+00  7.2655739235032071e-04  7.1608201290564979e-04 0.0000000000000000e+00  1.0470690715186540e-04  9.3927202401720882e-05 0.0000000000000000e+00  7.3100978844296228e-05  7.3246574836780779e-05 0.0000000000000000e+00  1.4099162623891991e-04  4.1292469582809232e-05 0.0000000000000000e+00  2.7879496357893714e-04  3.9455858519781424e-05 0.0000000000000000e+00  1.1170928783863014e-04  2.1136153480541114e-04 0.0000000000000000e+00  5.5321529845559925e-05  2.7898805603679400e-04 0.0000000000000000e+00  8.5609043904007992e-05  2.9876280208721104e-04 0.0000000000000000e+00  1.1476608443797212e-04  2.9044163963689576e-04 0.0000000000000000e+00  1.3292254722716606e-04  6.4911243557966281e-04 0.0000000000000000e+00  1.7964438230375922e-04  6.5653686121924023e-04 0.0000000000000000e+00  1.5246100758369943e-04  4.5877806473692640e-04 0.0000000000000000e+00  1.2932168523688167e-04  5.6213847089061036e-04 0.0000000000000000e+00  3.0090269698314885e-04  9.2940369307628157e-04 0.0000000000000000e+00  2.5032529762986468e-04  9.8091710252433016e-04 0.0000000000000000e+00  9.10