<?xml version="1.0"?>
<VTKFile type="UnstructuredGrid"  version="0.1"  >
<UnstructuredGrid>
<Piece  NumberOfPoints="1385" NumberOfCells="2640">
<Points>
<DataArray  type="Float64"  NumberOfComponents="3"  format="ascii">0 0 0  1 0 0  1 1 0  0 1 0  0.5 0 0  1 0.5 0  0.5 1 0  0 0.5 0  0.5 0.5 0  0 0.25 0  0.25 0 0  0.25 1 0  0 0.75 0  1 0.25 0  0.75 0 0  1 0.75 0  0.75 1 0  0.7083333333333333 0.2916666666666667 0  0.2916666666666666 0.7083333333333334 0  0.375 0.25 0  0.75 0.625 0  0.2569444444444444 0.4652777777777778 0  0.5366379310344828 0.7535919540229885 0  0.1875 0.1875 0  0.8125 0.8125 0  0.869047619047619 0.375 0  0.1450441919191919 0.6052714646464646 0  0.375 0.8690476190476191 0  0.5526960784313725 0.1825980392156862 0  0.8385416666666666 0.1614583333333334 0  0.1614583333333333 0.8385416666666667 0  0.6736111111111112 0.4652777777777778 0  0.1367521367521368 0.3477564102564102 0  0.6570970491253563 0.8648656830417855 0  0.5102479397556124 0.3386260301221938 0  0.3654513888888889 0.5737847222222222 0  0.6929750044954185 0.1362784921584263 0  0.388576102743835 0.411911725237599 0  0.6091269841269842 0.5942460317460317 0  0.875 0.6875 0  0.427278890279516 0.119889445139758 0  0.8544456845238095 0.5213913690476191 0  0.125 0 0  0 0.125 0  1 0.875 0  0.875 1 0  0.1280008648150532 0.4769292340226777 0  0.2695382451711197 0.3321750950221553 0  0.7031567235715964 0.7447810921428012 0  0.625 0 0  0.375 0 0  0.125 1 0  0.875 0 0  0 0.375 0  0 0.625 0  1 0.375 0  0.375 1 0  1 0.125 0  0 0.875 0  0.625 1 0  1 0.625 0  0.2979288363930608 0.1201429454643536 0  0.410919540229885 0.7484605911330049 0  0.5325041980395562 0.878905151526474 0  0.4831670727569156 0.6331060043826487 0  0.1735997378973042 0.7204747378973043 0  0.2534919507575758 0.5772372159090909 0  0.2633928571428572 0.8876488095238095 0  0.8199404761904761 0.2730654761904762 0  0.75830270586982 0.3919383189517417 0  0.5750282248382511 0.4237522353023667 0  0.6008360210023379 0.2794828358598495 0  0.08163442644334186 0.6821295860397322 0  0.08333333333333333 0.1875 0  0.2028380815996574 0.08844602719988583 0  0.2766521142611967 0.2325436572164097 0  0.90625 0.78125 0  0.890625 0.890625 0  0.7545696325008384 0.8973565441669461 0  0.5625 0.08086590340834317 0  0.09077380952380953 0.09077380952380952 0  0.4610923478694773 0.209034015149656 0  0.7542527598351648 0.5248380520595106 0  0.6459235536037465 0.3619913988405765 0  0.7560381768882634 0.20506142233852 0  0.07073252688172042 0.8125 0  0.0924753097241701 0.9078102849914793 0  0.9292674731182795 0.1875 0  0.9075246902758297 0.09218971500852073 0  0.8125 0.07073252688172045 0  0.2400955776842301 0.7869705776842302 0  0.9121050213379069 0.2781978201831695 0  0.7916878157143976 0.7239689078571988 0  0.9345238095238094 0.4375 0  0.4375 0.9345238095238095 0  0.3725616989755203 0.6651895248862173 0  0.06536271996350887 0.5625 0  0.9348362560379583 0.5625 0  0.456646798987055 0.8277247094351965 0  0.1875 0.9355758238725954 0  0.6169761231634859 0.6939779188977889 0  0.6226854751147515 0.7827911461419014 0  0.3305695598137626 0.7901697871282585 0  0.5865305325818898 0.5101085479043448 0  0.6622701297028378 0.2177663989757395 0  0.1354166666666667 0.2591702279202279 0  0 0.3125 0  0.2094429575680048 0.3936361846162499 0  0.836666296419157 0.607917407161686 0  0.6875 1 0  0.214261555450504 0.6492551722020035 0  0 0.4375 0  0.07731537126068377 0.40625 0  0.3427725432967068 0.4879566233699599 0  0.3550792513951871 0.3331953632609953 0  0.4462473953896857 0.2887834789342508 0  0.4747801464819794 0.417386052030127 0  0.8229836475148948 0.4443292349237342 0  0.7322605135514757 0.8199240278289671 0  0.6756431877205955 0.5468989748126787 0  0.1968419507215863 0.5194573482612496 0  0.3285590277777778 0.9345238095238095 0  0.8125 1 0  0.4198917601920009 0.5134893045331258 0  0.5232405503206691 0.2595791787880157 0  1 0.9375 0  0.1987510870015086 0.3025185951894431 0  0.5625 1 0  0.6005390654136388 0.9228110509230952 0  0.6411254848194414 0.07704872765442942 0  0.3357233162523242 0.1855113224530532 0  0.6730653396610877 0.6393887462324165 0  0.310966987234063 0.6240019765311626 0  0.7368737836204349 0.07457755202327881 0  0.6192316414418171 0.1485238406378594 0  0.5432429670607106 0.678552703844006 0  0.4754371679695679 0.7103946803120881 0  0.07501324890749672 0.3043839897335739 0  0.5358146975860403 0.5688321463205916 0  0.3115271739500156 0.3982137365971444 0  0.3625191397122174 0.0767854603650549 0  0.5024029442563831 0.1264128223758444 0  0.4375 0 0  0.4699946908887376 0.06379961173775725 0  0.9375 0.71875 0  0.9272105898044465 0.635671179608893 0  0.9375 1 0  0.6690971819568612 0.9331530898202766 0  0.1073454944778885 0.7499206387638554 0  0.8699082999280406 0.2232403652524313 0  0.5773118091863964 0.3548027349159383 0  0.1354166666666667 0.1428571428571428 0  0.3125 0 0  0.8241684193077341 0.9257452995055244 0  0.4352314948354036 0.3586940847489378 0  0.4351301473778832 0.5819726043539077 0  0.8073232928518163 0.3419398170341962 0  0.7775949246947366 0.1298519409204575 0  0.6875 0 0  0.7413513991851041 0.457933324954483 0  0.939453125 0.841796875 0  0.5630355154606987 0.8171875156478349 0  0.9345238095238095 0.3461466592368577 0  0.9375 0 0  1 0.0625 0  0.0625 1 0  0 0.9375 0  0.06552178593177167 0.4969053669623468 0  0.1424866619031703 0.4130277709291224 0  0.1275287182444726 0.5422946908002588 0  0.2637686595586339 0.06413888464529549 0  0.2524263535491086 0.1697437503243817 0  0.7367218397988525 0.6888573970660841 0  0.0625 0 0  0 0.0625 0  0.8463594539285995 0.7578283617857982 0  0.3128751192101563 0.2851997374369947 0  0.4015281788351144 0.1806421385113692 0  0.1910251795116588 0.4553332197174453 0  0.287797471442006 0.5222621440543902 0  0.3962628745986055 0.8097380085535307 0  0.3505895299554843 0.7304878890838692 0  0.5019151500495276 0.9356042615328103 0  0.9374389419410134 0.4999931039076005 0  0.3125 1 0  0.1875 1 0  1 0.5625 0  0.4375 1 0  1 0.3125 0  1 0.4375 0  0.8125 0 0  1 0.1875 0  0.5625 0 0  0.1875 0 0  0 0.1875 0  0 0.5625 0  0 0.6875 0  0 0.8125 0  1 0.6875 0  1 0.8125 0  0.8021696218581627 0.6612893947866073 0  0.06154922295426143 0.6239401126946708 0  0.9359375 0.9359375 0  0.4666158024849896 0.7691515918155014 0  0.2318201265217025 0.7064974250277525 0  0.1565954253579966 0.6635489312486841 0  0.1598132503680848 0.7787147500325552 0  0.3146529991605639 0.8510876378205265 0  0.1461873209418733 0.05982804528877814 0  0.06109554988524315 0.2446551776247686 0  0.8054950308560754 0.5564226538848541 0  0.470541749491976 0.8853316336952531 0  0.6948472567465137 0.4042308563372457 0  0.8802828472348889 0.4658893256343853 0  0.6788075634946739 0.7974194205806069 0  0.2155048659603867 0.2428201584940968 0  0.8131223143423806 0.2132171049028394 0  0.4330798005432235 0.6671274900735726 0  0.6015279126162613 0.2187368078743274 0  0.8061636571464289 0.8703766630361714 0  0.7008230445061776 0.3478568388444072 0  0.8638466246958771 0.3147095987735538 0  0.204801534004265 0.8789209409594009 0  0.2449006736431132 0.9424182882803838 0  0.7611268409371427 0.2643056884799992 0  0.7552800864046191 0.7678006649959446 0  0.5983639638906616 0.864113435029236 0  0.1956559506814437 0.577281203577426 0  0.3527670268164207 0.1320469097565204 0  0.7530364577483248 0.3262386077083089 0  0.4535919187979363 0.4690107087451527 0  0.8824869791666666 0.8336588541666666 0  0.8814453125 0.9451171875 0  0.5582987942628019 0.622421666543858 0  0.6817532446064828 0.6939001801354731 0  0.3830295138888889 0.9450968952922078 0  0.4140603937012541 0.05211333372716105 0  0.5535864501303013 0.3060591985391672 0  0.6560130086346878 0.2729726562211558 0  0.890203140221684 0.5948314305427268 0  0.7043857725999024 0.593980890020804 0  0.5105843922695152 0.8016828014338627 0  0.05365910753708378 0.7315110031682004 0  0.616904573672261 0.4621186633436136 0  0.5338511646455415 0.387875898899613 0  0.5231769258947843 0.4477682463140762 0  0.650302973237622 0.7370722302085519 0  0.3927483139621257 0.4662414504529014 0  0.8034595960585199 0.4972538342758211 0  0.7738337841682438 0.9496376207663251 0  0.7193737507158268 0.954685447650112 0  0.482525916480686 0.5528257169991676 0  0.2533501157346781 0.2809495420003238 0  0.3118487924482243 0.5702930126570319 0  0.6257598847669529 0.4104163315430518 0  0.1354166666666667 0.1955605158730158 0  0.04166666666666666 0.15625 0  0.3956448985530264 0.6174149462065157 0  0.8102897701818546 0.3938784238208349 0  0.2641154190013625 0.8344469561943118 0  0.642852220770013 0.5068794586563659 0  0.05271458179508221 0.355846947336007 0  0.7021551360070266 0.8921457280225779 0  0.5692125776683765 0.1328512638850284 0  0.5206162811937602 0.04865158770992991 0  0.6001838442201555 0.04540556991297563 0  0.2597716608242787 0.4118346398477178 0  0.4040584599473195 0.3179589136784675 0  0.1480337679295207 0.8941560631483065 0  0.1344356707112281 0.9466251177415842 0  0.7114696411829317 0.4983917389078826 0  0.7585704698442475 0.5751926345944629 0  0.2189131956390871 0.04022068508159698 0  0.2476935455192043 0.1123642267635843 0  0.185995005654517 0.1365524537205238 0  0.6223414373308711 0.643380839165121 0  0.5732602596637543 0.7190051747306219 0  0.268358222364537 0.6586246524467934 0  0.3265879848129173 0.2369791782191225 0  0.1267095595787346 0.7034787238999181 0  0.1115202922226038 0.6421997933884982 0  0.3128688392940203 0.07260997451790079 0  0.550724900485678 0.9253360991633187 0  0.7142608810459105 0.2384904702214873 0  0.7045869185243887 0.1871826897887429 0  0.890625 0.734375 0  0.953125 0.765625 0  0.2111812642821677 0.8286209446459138 0  0.9590293078204457 0.09375 0  0.953431269039847 0.1435719386408004 0  0.04097069217955424 0.90625 0  0.04656873096015299 0.8564280613591996 0  0.1078743037981226 0.8541621766048062 0  0.8921256962018773 0.1458378233951939 0  0.8521576979194619 0.1084496634207678 0  0.8655663982740958 0.05464346096571447 0  0.04005659640905543 0.09375 0  0.1001448316533417 0.04246776244228261 
[...]
<CellData  Vectors="f_8394-1"> 
<DataArray  type="Float64"  Name="f_8394-1"  NumberOfComponents="3" format="ascii">8.5166245329764889e-05  7.4645099193884458e-05 0.0000000000000000e+00  3.0186236610252701e-05  3.8406893928113435e-05 0.0000000000000000e+00  2.8160106142854971e-05  3.6428875809499885e-05 0.0000000000000000e+00  1.6793904308473871e-05  2.3613620203348187e-05 0.0000000000000000e+00  4.4375320638186020e-05  7.8689787908552223e-05 0.0000000000000000e+00  3.8026355310190651e-05  4.0166266466729271e-05 0.0000000000000000e+00  3.3357784157481345e-05  2.1419580443885887e-04 0.0000000000000000e+00  1.9246573335271920e-05  3.1312727235930884e-04 0.0000000000000000e+00  2.6591041437813663e-04  1.9594015739355744e-05 0.0000000000000000e+00  1.2201113243199818e-04  4.4055139276183728e-06 0.0000000000000000e+00  5.4966869962542843e-05  2.7875341116673055e-05 0.0000000000000000e+00  1.8676702597603671e-04  2.2430506901222587e-04 0.0000000000000000e+00  1.4757003486371955e-04  2.7744797446025495e-04 0.0000000000000000e+00  2.1905843787241750e-04  1.5876329320551759e-04 0.0000000000000000e+00  2.7380418667171199e-04  1.2617430715247617e-04 0.0000000000000000e+00  2.3630122729136131e-04  8.9739829201554251e-05 0.0000000000000000e+00  1.6123129653988321e-04  1.7878307988254281e-04 0.0000000000000000e+00  7.4987703918190981e-05  8.8630278686804655e-05 0.0000000000000000e+00  4.3634407725020734e-05  2.0143182787481700e-04 0.0000000000000000e+00  1.1560869349568508e-04  4.5530267482778947e-05 0.0000000000000000e+00  1.2163745681498005e-04  3.1797212750591355e-05 0.0000000000000000e+00  2.1724950440092937e-04  8.2689401541480561e-05 0.0000000000000000e+00  2.4030488866043573e-04  7.6486106090976620e-05 0.0000000000000000e+00  3.2223564911730925e-05  2.1529624133501699e-04 0.0000000000000000e+00  4.1243206783527534e-05  1.1137921776229746e-04 0.0000000000000000e+00  5.3221638378600122e-05  2.5797611762838071e-04 0.0000000000000000e+00  7.1292249791687336e-06  4.1791903507649895e-05 0.0000000000000000e+00  2.0038409290944239e-04  2.9380085022249779e-05 0.0000000000000000e+00  1.7785610849344777e-05  3.0763584592380741e-04 0.0000000000000000e+00  1.1421286296603026e-04  1.4353810008714821e-05 0.0000000000000000e+00  2.6605111066536582e-04  4.0631363435306092e-05 0.0000000000000000e+00  1.0220756453693989e-04  1.4780143648754021e-04 0.0000000000000000e+00  1.0476066740201139e-04  5.9377101752350683e-05 0.0000000000000000e+00  1.5834554508379362e-04  2.5217342341478328e-04 0.0000000000000000e+00  6.3587614517278534e-05  2.1426674041547408e-05 0.0000000000000000e+00  8.7889778989813679e-05  4.7822650514920485e-05 0.0000000000000000e+00  8.6982300262352025e-05  1.1772827949375770e-04 0.0000000000000000e+00  4.6961834297804480e-05  2.2386273870725017e-04 0.0000000000000000e+00  1.6354586300554292e-04  2.9196551578265670e-05 0.0000000000000000e+00  7.7062581177143793e-05  6.7848806718286050e-05 0.0000000000000000e+00  7.5533668438946538e-05  6.3553842031974711e-05 0.0000000000000000e+00  1.1997198903524344e-04  7.4332028880322483e-05 0.0000000000000000e+00  2.5092411647182223e-04  1.1561220076605117e-04 0.0000000000000000e+00  2.7452202260930101e-04  1.2035605446689741e-04 0.0000000000000000e+00  4.5561454274479497e-05  1.5541811621877093e-05 0.0000000000000000e+00  3.2324597722140698e-04  1.5863523666694693e-04 0.0000000000000000e+00  2.3332223873939682e-04  1.1515493817626220e-04 0.0000000000000000e+00  3.1418503457416622e-05  3.7548734689969398e-05 0.0000000000000000e+00  3.1199011118388670e-04  2.3083476785113949e-04 0.0000000000000000e+00  2.9881014952459675e-04  1.8560680620006233e-04 0.0000000000000000e+00  2.5621915446884361e-04  2.4416752576097712e-04 0.0000000000000000e+00  2.8432523426962127e-04  2.7521330468593090e-04 0.0000000000000000e+00  4.6685086767877223e-05  1.2897845411573224e-04 0.0000000000000000e+00  8.7114806309451329e-05  4.3824485182397967e-05 0.0000000000000000e+00  4.3250815737216634e-05  7.2813954433585085e-05 0.0000000000000000e+00  1.9485148125760333e-04  1.9722123762499149e-04 0.0000000000000000e+00  1.5660805219039654e-04  1.4221908910514035e-04 0.0000000000000000e+00  1.4630101644921630e-04  4.8440154552883306e-05 0.0000000000000000e+00  6.4418915077891288e-05  1.7388011379042958e-05 0.0000000000000000e+00  2.2394935491018681e-05  2.8198213980722944e-04 0.0000000000000000e+00  1.6052352145411448e-05  2.7226263706283288e-04 0.0000000000000000e+00  2.4718642060536818e-04  3.5434858014388888e-05 0.0000000000000000e+00  3.0017259075988975e-05  6.4651994474936511e-05 0.0000000000000000e+00  2.6629070543488892e-05  1.3275644225243198e-04 0.0000000000000000e+00  4.2125665117805152e-05  1.4247571277505088e-04 0.0000000000000000e+00  2.2788663967229816e-04  4.6082972060321664e-05 0.0000000000000000e+00  3.7366168685597901e-05  2.1404311974050099e-04 0.0000000000000000e+00  2.9022794220772655e-04  1.8666442669830425e-05 0.0000000000000000e+00  1.6486938677893983e-05  3.0328728910705379e-04 0.0000000000000000e+00  1.0059124377652537e-04  3.2202759163820795e-04 0.0000000000000000e+00  1.0979202173055607e-04  2.9863722385684970e-04 0.0000000000000000e+00  2.6260459318868149e-04  1.4732821153940037e-04 0.0000000000000000e+00  5.0238777724092296e-05  4.3955091346156437e-05 0.0000000000000000e+00  7.5014478759544132e-05  1.2834779775195400e-04 0.0000000000000000e+00  1.2891441235864280e-04  1.8020468798712883e-04 0.0000000000000000e+00  7.3821255395945735e-05  2.4267320000407640e-04 0.0000000000000000e+00  1.0521400238154018e-04  2.4215066028705065e-04 0.0000000000000000e+00  1.0567565739194422e-04  1.6969778204009394e-04 0.0000000000000000e+00  8.2465343135372862e-05  2.1341983344125547e-04 0.0000000000000000e+00  2.3904031607905316e-05  1.5782042547107523e-04 0.0000000000000000e+00  2.1395283804368919e-05  1.2474800988974751e-04 0.0000000000000000e+00  1.9356308152149189e-05  1.1537227759025022e-04 0.0000000000000000e+00  3.7976297555428929e-05  1.0380810756454900e-04 0.0000000000000000e+00  2.2633429106558979e-05  3.1790146155807105e-04 0.0000000000000000e+00  2.7904491714519106e-04  3.8756584099789260e-05 0.0000000000000000e+00  1.7650054641173303e-04  3.1194040808021743e-05 0.0000000000000000e+00  1.7538026424482350e-04  6.4441529737412195e-05 0.0000000000000000e+00  2.6329905707635383e-04  4.8458666991040099e-05 0.0000000000000000e+00  1.7606902194712798e-04  9.1148128143923439e-05 0.0000000000000000e+00  1.0988238503614052e-04  8.2457266061388687e-05 0.0000000000000000e+00  1.6240317459839055e-04  3.1449973148782853e-05 0.0000000000000000e+00  1.3983077067628564e-04  4.6947110141974266e-05 0.0000000000000000e+00  2.3386717326875958e-05  1.9370023237853616e-05 0.0000000000000000e+00  2.0178449860645743e-05  2.7925703847017857e-06 0.0000000000000000e+00  3.7954232437065536e-05  3.9785310243596736e-05 0.0000000000000000e+00  5.3160170794814150e-05  4.1524805309762056e-05 0.0000000000000000e+00  6.2342735298302477e-05  2.5087935052610941e-05 0.0000000000000000e+00  1.9855266970503948e-04  3.1697090310596146e-04 0.0000000000000000e+00  1.9257512405333759e-04  2.9051450918508653e-04 0.0000000000000000e+00  9.5147414858897576e-05  4.9806174797901553e-05 0.0000000000000000e+00  7.0772704161783034e-05  4.0343651875396920e-05 0.0000000000000000e+00  8.2114164305094995e-05  5.3317557719488449e-05 0.0000000000000000e+00  9.2123781968567832e-05  3.6035324169000945e-05 0.0000000000000000e+00  1.6613677814671430e-04  1.3034744130517055e-04 0.0000000000000000e+00  1.6367070103033489e-04  1.0824762823935353e-04 0.0000000000000000e+00  2.1041897686487876e-04  5.4253131945940553e-05 0.0000000000000000e+00  1.6926191705837507e-04  7.9938074815296054e-05 0.0000000000000000e+00  1.8204559014912237e-04  3.9154528337486287e-05 0.0000000000000000e+00  1.5218282674883571e-04  2.4064804147985270e-05 0.0000000000000000e+00  1.9194392028997016e-05  2.6036882388743757e-04 0.0000000000000000e+00  2.5577311883277883e-05  2.6802814316835257e-04 0.0000000000000000e+00  3.0758614684113207e-04  1.4204092035186435e-05 0.0000000000000000e+00  2.9664607265749489e-04  2.8766592096057939e-05 0.0000000000000000e+00  2.2626036496465249e-04  1.9524887971992792e-05 0.0000000000000000e+00  2.1933276888844026e-04  1.0838291970472242e-05 0.0000000000000000e+00  2.9450203645126889e-05  2.1625655513326700e-04 0.0000000000000000e+00  4.4885967741427075e-05  1.6435904093398590e-04 0.0000000000000000e+00  3.0500721861738189e-04  3.7815205674578812e-05 0.0000000000000000e+00  2.4522978744527643e-04  1.6093243350538439e-04 0.0000000000000000e+00  2.1038788299435442e-04  1.8632532915513540e-04 0.0000000000000000e+00  9.1625493925700190e-05  2.6139528668871323e-04 0.0000000000000000e+00  9.0002972445330705e-05  3.0217756354342925e-04 0.0000000000000000e+00  4.1008647798174190e-05  1.1124132603915608e-04 0.0000000000000000e+00  6.1040514709950075e-05  1.3862421417838752e-04 0.0000000000000000e+00  2.4057675500560700e-05  1.0701718474022164e-04 0.0000000000000000e+00  3.8391560169198129e-05  1.1887441875397152e-04 0.0000000000000000e+00  2.7969693370590932e-04  8.9139753435818104e-05 0.0000000000000000e+00  2.9960220797539423e-04  1.0869016296812953e-04 0.0000000000000000e+00  7.5443740421683061e-05  2.8578369719038595e-04 0.0000000000000000e+00  7.7330311524921778e-05  1.6567249211186291e-04 0.0000000000000000e+00  1.1669733735091807e-04  1.3088936182798682e-04 0.0000000000000000e+00  1.3570419586052428e-04  1.1883895595531759e-04 0.0000000000000000e+00  1.2176004156817936e-04  2.5690340457451566e-04 0.0000000000000000e+00  1.0959483007817538e-04  2.5280225108175830e-04 0.0000000000000000e+00  5.7865077247651725e-05  2.5947185269342839e-04 0.0000000000000000e+00  6.8351887371412824e-05  2.8603693203491174e-04 0.0000000000000000e+00  1.4832785192937602e-04  1.3874100435283914e-04 0.0000000000000000e+00  1.0252813986226071e-04  1.5491377170925210e-04 0.0000000000000000e+00  1.6827930266611468e-04  3.4237261143488342e-05 0.0000000000000000e+00  1.8509947664685747e-04  3.5878173302466634e-05 0.0000000000000000e+00  2.3356764288014551e-05  3.9736759572064372e-05 0.0000000000000000e+00  2.7298502278649857e-05  1.5743210374874742e-05 0.0000000000000000e+00  1.9104075685703919e-05  3.9279838583026534e-05 0.0000000000000000e+00  3.8490166208512793e-05  2.1923927403577680e-05 0.0000000000000000e+00  3.2299759350538412e-05  1.0479964406450470e-04 0.0000000000000000e+00  3.4279585886319225e-05  6.6816422262655796e-05 0.0000000000000000e+00  2.9615584319930756e-04  1.5077291683204325e-04 0.0000000000000000e+00  2.3224789114735812e-04  1.3415127819590533e-04 0.0000000000000000e+00  1.4785776677274186e-04  2.5697293915968736e-04 0.0000000000000000e+00  1.6355902161106748e-04  3.0130298518780946e-04 0.0000000000000000e+00  2.7780845134066582e-05  1.8490741338529946e-04 0.0000000000000000e+00  4.4766363536480810e-05  1.5822262487309480e-04 0.0000000000000000e+00  2.2202277147640593e-05  6.3306707966347147e-05 0.0000000000000000e+00  1.6422696316916280e-05  4.3541898037927369e-05 0.0000000000000000e+00  2.0633686104804803e-05  6.4506540147432081e-05 0.0000000000000000e+00  4.5924908435323286e-05  9.9954068576649553e-05 0.0000000000000000e+00  5.7637977843074101e-05  8.5550639056871866e-05 0.0000000000000000e+00  9.0859833917183441e-05  2.2723850935597385e-05 0.0000000000000000e+00  9.7673433604199758e-05  6.3480337916897286e-05 0.0000000000000000e+00  7.3314282780180385e-05  9.4947819977377770e-05 0.0000000000000000e+00  5.9900385840584694e-05  5.8249480774854252e-05 0.0000000000000000e+00  1.1178619486299128e-04  6.9071972491500960e-05 0.0000000000000000e+00  9.8524162879322179e-05  1.0326406456123569e-04 0.0000000000000000e+00  2.7986390347511079e-04  7.0965830761414707e-05 0.0000000000000000e+00  2.3000011323405273e-04  8.8223142206796061e-05 0.0000000000000000e+00  2.0501599485635562e-04  2.0497704946067241e-04 0.0000000000000000e+00  1.9168559033256295e-04  2.1271900866915594e-04 0.0000000000000000e+00  1.6992179732070356e-04  1.1413679159143829e-04 0.0000000000000000e+00  1.3793510677257616e-04  8.6751995798487204e-05 0.0000000000000000e+00  5.1921329945980442e-05  8.6939403390256449e-05 0.0000000000000000e+00  3.7524887233663175e-05  5.6703666316230899e-05 0.0000000000000000e+00  5.8841517981355902e-05  2.7070978992593044e-04 0.0000000000000000e+00  4.1127957963423743e-05  3.3354456275403122e-04 0.0000000000000000e+00  2.7271244601784835e-04  3.3312869938690638e-04 0.0000000000000000e+00  2.5609137242391518e-04  2.9764086958710518e-04 0.0000000000000000e+00  9.1170115650780073e-05  1.0330075081783811e-04 0.0000000000000000e+00  7.4498373429543599e-05  1.3513637808325180e-04 0.0000000000000000e+00  1.6374623358562365e-04  3.4222894005208640e-05 0.0000000000000000e+00  1.2094210394680114e-04  4.6030048408854702e-05 0.0000000000000000e+00  3.0052607193138540e-04  2.8662198791747936e-04 0.0000000000000000e+00  2.7923259695295384e-04  2.9166640470063932e-04 0.0000000000000000e+00  2.3397929675074421e-05  5.2885498732976602e-05 0.0000000000000000e+00  1.9943850447452785e-05  6.0356826906867770e-05 0.0000000000000000e+00  9.1826721464312159e-05  3.1962083451201570e-04 0.0000000000000000e+00  1.2988693208366026e-04  3.2112582159958807e-04 0.0000000000000000e+00  1.5156935332988274e-04  2.9717214371970260e-04 0.0000000000000000e+00  1.3089168036119124e-04  3.1180027873521827e-04 0.0000000000000000e+00  1.9525270811271032e-04  1.6274081333150715e-05 0.0000000000000000e+00  7.8220688335272698e-05  4.4847951706992225e-05 0.0000000000000000e+00  8.3395515414361524e-05  4.7791259787260846e-05 0.0000000000000000e+00  1.6214293834064468e-04  1.3712338587878564e-04 0.0000000000000000e+00  1.5459854363014468e-04  1.5500328251134295e-04 0.0000000000000000e+00  4.9406046635753176e-05  1.3471919637176891e-04 0.0000000000000000e+00  3.9263054759553249e-05  1.3084127349868862e-04 0.0000000000000000e+00  1.6821218409705473e-04  2.1047330322527323e-05 0.0000000000000000e+00  1.6770958832617553e-04  2.7464891975590120e-05 0.0000000000000000e+00  1.5571816940215352e-04  4.4139725817759213e-05 0.0000000000000000e+00  1.4161464730602581e-04  3.3880017251348449e-05 0.0000000000000000e+00  8.7498731657548236e-05  2.0653268662358093e-04 0.0000000000000000e+00  7.7854316622646426e-05  1.6297999902531584e-04 0.0000000000000000e+00  7.1818459544394124e-05  1.6068562582962311e-04 0.0000000000000000e+00  7.8102943632504105e-05  1.8057998752397882e-04 0.0000000000000000e+00  3.7863672188797001e-05  2.6065749666851666e-05 0.0000000000000000e+00  2.9752106848371458e-05  5.3071273117478646e-05 0.0000000000000000e+00  1.1873525934541519e-04  1.1816908188162477e-04 0.0000000000000000e+00  1.3654530405094977e-04  1.2235059404438342e-04 0.0000000000000000e+00  7.1320399334939561e-05  6.7456890647792442e-05 0.0000000000000000e+00  2.3761382228115737e-05  8.7344897910862643e-05 0.0000000000000000e+00  6.1921696260721745e-05  1.8845184985855762e-05 0.0000000000000000e+00  1.0535556206416524e-04  4.9700653856962709e-05 0.0000000000000000e+00  1.1384141395130535e-04  3.1246527099963115e-05 0.0000000000000000e+00  8.3462480090235505e-05  4.5323918313004015e-05 0.0000000000000000e+00  6.7380391393076242e-05  5.6302147729805511e-05 0.0000000000000000e+00  8.1195566598161927e-05  4.4806277360750094e-05 0.0000000000000000e+00  6.3510607027947568e-05  3.0531278373326509e-05 0.0000000000000000e+00  3.0700128946426034e-04  1.6313016064556561e-04 0.0000000000000000e+00  3.0606984363268705e-04  1.8831348105819747e-04 0.0000000000000000e+00  2.8429023264839006e-04  1.5836117315586065e-04 0.0000000000000000e+00  2.8852118165685928e-04  2.9175861415992402e-04 0.0000000000000000e+00  1.8663157527076083e-04  3.2607302309913726e-04 0.0000000000000000e+00  2.4972378068765507e-05  2.0256286278865857e-04 0.0000000000000000e+00  2.4853199464683601e-05  1.9208176365887114e-04 0.0000000000000000e+00  2.4045271873211806e-04  3.4529009482939080e-05 0.0000000000000000e+00  3.0636616716083999e-04  2.2121459812837878e-05 0.0000000000000000e+00  1.3071921617813155e-04  7.8923742773411384e-05 0.0000000000000000e+00  7.8291203172815865e-05  6.2986112457277807e-05 0.0000000000000000e+00  4.5565285274613436e-05  2.8061392374274264e-05 0.0000000000000000e+00  3.7265845880157852e-05  3.3490681434082948e-05 0.0000000000000000e+00  2.3904808985250654e-04  2.4826043249140818e-04 0.0000000000000000e+00  2.7113869451934376e-04  2.4936892276311622e-04 0.0000000000000000e+00  5.8721218786209963e-05  5.7890183140244902e-05 0.0000000000000000e+00  1.0124928605095196e-04  5.3697828594355493e-05 0.0000000000000000e+00  3.6662846789369583e-05  1.9058751440780708e-04 0.0000000000000000e+00  4.7995552884420575e-05  1.4409184461137325e-04 0.0000000000000000e+00  2.4181091694958729e-04  3.4512400499940677e-05 0.0000000000000000e+00  2.6819226331549863e-04  3.9313843148076295e-05 0.0000000000000000e+00  2.7789877890268237e-04  2.2693536620967034e-05 0.0000000000000000e+00  2.0275676589968946e-04  1.0694663390194204e-05 0.0000000000000000e+00  1.7066172813855323e-04  1.4876841568713606e-05 0.0000000000000000e+00  1.7234710374949757e-04  8.6101049233457285e-05 0.0000000000000000e+00  2.0215255601323289e-04  4.6930282946118717e-05 0.0000000000000000e+00  2.9603108865253273e-04  2.5394899645064627e-04 0.0000000000000000e+00  1.0130018459746567e-04  2.4566336702764517e-04 0.0000000000000000e+00  9.6899343347171029e-05  1.9656856044699604e-04 0.0000000000000000e+00  2.9636622044623988e-04  5.7750749167938935e-05 0.0000000000000000e+00  2.7681266743732517e-04  7.5593496227279177e-05 0.0000000000000000e+00  3.6252017480645823e-04  3.9968515125750973e-06 0.0000000000000000e+00  1.8929095536074007e-05  3.1304938736991227e-04 0.0000000000000000e+00  4.1250845397373401e-06  3.5529259602987156e-04 0.0000000000000000e+00  3.8801525141841704e-05  7.9511568765322767e-05 0.0000000000000000e+00  2.1247642481923533e-05  1.1080845806226967e-04 0.0000000000000000e+00  2.3269010599629112e-05  6.0421070411480360e-05 0.0000000000000000e+00  2.5518580451640588e-05  5.9711744385502916e-05 0.0000000000000000e+00  4.7816456162844766e-05  7.5552578465213689e-05 0.0000000000000000e+00  3.5581226488107461e-05  1.3116659825214590e-04 0.0000000000000000e+00  3.7547004932805966e-05  5.4507312123348087e-05 0.0000000000000000e+00  2.6714499734717477e-05  2.1308624624857869e-05 0.0000000000000000e+00  2.6561128832179410e-05  4.5247463103797303e-05 0.0000000000000000e+00  3.1588730359166351e-05  1.6249899493222707e-05 0.0000000000000000e+00  1.7633033040422702e-04  1.7010996286885092e-04 0.0000000000000000e+00  1.9940330662962213e-04  1.6581741960337214e-04 0.0000000000000000e+00  2.5842391199220425e-05  -3.8812514533453662e-06 0.0000000000000000e+00  2.6762149583280626e-05  -9.4610080938575554e-07 0.0000000000000000e+00  2.4067317057947884e-05  5.0159503373985078e-05 0.0000000000000000e+00  2.7089699004340898e-04  2.0992438146306343e-04 0.0000000000000000e+00  2.5132107776372790e-04  2.4689019720450223e-04 0.0000000000000000e+00  4.9736466262389395e-05  4.2375584361591363e-05 0.0000000000000000e+00  2.9588030983754501e-05  3.5561729072906214e-05 0.0000000000000000e+00  5.8501992173589199e-05  2.9166476108513622e-05 0.0000000000000000e+00  1.0844531339530496e-04  2.2073880428849170e-05 0.0000000000000000e+00  4.6033855592548631e-05  8.4503388321636227e-05 0.0000000000000000e+00  2.1758220926810958e-05  9.8715718677639202e-05 0.0000000000000000e+00  4.7906824721434515e-05  1.1363959916319280e-04 0.0000000000000000e+00  4.7158803494084911e-05  1.0897144234042236e-04 0.0000000000000000e+00  5.4978105277812734e-05  2.3204559047019450e-04 0.0000000000000000e+00  6.6475115607604100e-05  2.3548012947887929e-04 0.0000000000000000e+00  5.7897712314221738e-05  1.6184657388692094e-04 0.0000000000000000e+00  5.2506640872768823e-05  2.0037035178253136e-04 0.0000000000000000e+00  1.0533935848334081e-04  3.2733301034790436e-04 0.0000000000000000e+00  8.7887905874076049e-05  3.4508613137102694e-04 0.0000000000000000e+00  3.2