<?xml version="1.0"?>
<VTKFile type="UnstructuredGrid"  version="0.1"  >
<UnstructuredGrid>
<Piece  NumberOfPoints="1385" NumberOfCells="2640">
<Points>
<DataArray  type="Float64"  NumberOfComponents="3"  format="ascii">0 0 0  1 0 0  1 1 0  0 1 0  0.5 0 0  1 0.5 0  0.5 1 0  0 0.5 0  0.5 0.5 0  0 0.25 0  0.25 0 0  0.25 1 0  0 0.75 0  1 0.25 0  0.75 0 0  1 0.75 0  0.75 1 0  0.7083333333333333 0.2916666666666667 0  0.2916666666666666 0.7083333333333334 0  0.375 0.25 0  0.75 0.625 0  0.2569444444444444 0.4652777777777778 0  0.5366379310344828 0.7535919540229885 0  0.1875 0.1875 0  0.8125 0.8125 0  0.869047619047619 0.375 0  0.1450441919191919 0.6052714646464646 0  0.375 0.8690476190476191 0  0.5526960784313725 0.1825980392156862 0  0.8385416666666666 0.1614583333333334 0  0.1614583333333333 0.8385416666666667 0  0.6736111111111112 0.4652777777777778 0  0.1367521367521368 0.3477564102564102 0  0.6570970491253563 0.8648656830417855 0  0.5102479397556124 0.3386260301221938 0  0.3654513888888889 0.5737847222222222 0  0.6929750044954185 0.1362784921584263 0  0.388576102743835 0.411911725237599 0  0.6091269841269842 0.5942460317460317 0  0.875 0.6875 0  0.427278890279516 0.119889445139758 0  0.8544456845238095 0.5213913690476191 0  0.125 0 0  0 0.125 0  1 0.875 0  0.875 1 0  0.1280008648150532 0.4769292340226777 0  0.2695382451711197 0.3321750950221553 0  0.7031567235715964 0.7447810921428012 0  0.625 0 0  0.375 0 0  0.125 1 0  0.875 0 0  0 0.375 0  0 0.625 0  1 0.375 0  0.375 1 0  1 0.125 0  0 0.875 0  0.625 1 0  1 0.625 0  0.2979288363930608 0.1201429454643536 0  0.410919540229885 0.7484605911330049 0  0.5325041980395562 0.878905151526474 0  0.4831670727569156 0.6331060043826487 0  0.1735997378973042 0.7204747378973043 0  0.2534919507575758 0.5772372159090909 0  0.2633928571428572 0.8876488095238095 0  0.8199404761904761 0.2730654761904762 0  0.75830270586982 0.3919383189517417 0  0.5750282248382511 0.4237522353023667 0  0.6008360210023379 0.2794828358598495 0  0.08163442644334186 0.6821295860397322 0  0.08333333333333333 0.1875 0  0.2028380815996574 0.08844602719988583 0  0.2766521142611967 0.2325436572164097 0  0.90625 0.78125 0  0.890625 0.890625 0  0.7545696325008384 0.8973565441669461 0  0.5625 0.08086590340834317 0  0.09077380952380953 0.09077380952380952 0  0.4610923478694773 0.209034015149656 0  0.7542527598351648 0.5248380520595106 0  0.6459235536037465 0.3619913988405765 0  0.7560381768882634 0.20506142233852 0  0.07073252688172042 0.8125 0  0.0924753097241701 0.9078102849914793 0  0.9292674731182795 0.1875 0  0.9075246902758297 0.09218971500852073 0  0.8125 0.07073252688172045 0  0.2400955776842301 0.7869705776842302 0  0.9121050213379069 0.2781978201831695 0  0.7916878157143976 0.7239689078571988 0  0.9345238095238094 0.4375 0  0.4375 0.9345238095238095 0  0.3725616989755203 0.6651895248862173 0  0.06536271996350887 0.5625 0  0.9348362560379583 0.5625 0  0.456646798987055 0.8277247094351965 0  0.1875 0.9355758238725954 0  0.6169761231634859 0.6939779188977889 0  0.6226854751147515 0.7827911461419014 0  0.3305695598137626 0.7901697871282585 0  0.5865305325818898 0.5101085479043448 0  0.6622701297028378 0.2177663989757395 0  0.1354166666666667 0.2591702279202279 0  0 0.3125 0  0.2094429575680048 0.3936361846162499 0  0.836666296419157 0.607917407161686 0  0.6875 1 0  0.214261555450504 0.6492551722020035 0  0 0.4375 0  0.07731537126068377 0.40625 0  0.3427725432967068 0.4879566233699599 0  0.3550792513951871 0.3331953632609953 0  0.4462473953896857 0.2887834789342508 0  0.4747801464819794 0.417386052030127 0  0.8229836475148948 0.4443292349237342 0  0.7322605135514757 0.8199240278289671 0  0.6756431877205955 0.5468989748126787 0  0.1968419507215863 0.5194573482612496 0  0.3285590277777778 0.9345238095238095 0  0.8125 1 0  0.4198917601920009 0.5134893045331258 0  0.5232405503206691 0.2595791787880157 0  1 0.9375 0  0.1987510870015086 0.3025185951894431 0  0.5625 1 0  0.6005390654136388 0.9228110509230952 0  0.6411254848194414 0.07704872765442942 0  0.3357233162523242 0.1855113224530532 0  0.6730653396610877 0.6393887462324165 0  0.310966987234063 0.6240019765311626 0  0.7368737836204349 0.07457755202327881 0  0.6192316414418171 0.1485238406378594 0  0.5432429670607106 0.678552703844006 0  0.4754371679695679 0.7103946803120881 0  0.07501324890749672 0.3043839897335739 0  0.5358146975860403 0.5688321463205916 0  0.3115271739500156 0.3982137365971444 0  0.3625191397122174 0.0767854603650549 0  0.5024029442563831 0.1264128223758444 0  0.4375 0 0  0.4699946908887376 0.06379961173775725 0  0.9375 0.71875 0  0.9272105898044465 0.635671179608893 0  0.9375 1 0  0.6690971819568612 0.9331530898202766 0  0.1073454944778885 0.7499206387638554 0  0.8699082999280406 0.2232403652524313 0  0.5773118091863964 0.3548027349159383 0  0.1354166666666667 0.1428571428571428 0  0.3125 0 0  0.8241684193077341 0.9257452995055244 0  0.4352314948354036 0.3586940847489378 0  0.4351301473778832 0.5819726043539077 0  0.8073232928518163 0.3419398170341962 0  0.7775949246947366 0.1298519409204575 0  0.6875 0 0  0.7413513991851041 0.457933324954483 0  0.939453125 0.841796875 0  0.5630355154606987 0.8171875156478349 0  0.9345238095238095 0.3461466592368577 0  0.9375 0 0  1 0.0625 0  0.0625 1 0  0 0.9375 0  0.06552178593177167 0.4969053669623468 0  0.1424866619031703 0.4130277709291224 0  0.1275287182444726 0.5422946908002588 0  0.2637686595586339 0.06413888464529549 0  0.2524263535491086 0.1697437503243817 0  0.7367218397988525 0.6888573970660841 0  0.0625 0 0  0 0.0625 0  0.8463594539285995 0.7578283617857982 0  0.3128751192101563 0.2851997374369947 0  0.4015281788351144 0.1806421385113692 0  0.1910251795116588 0.4553332197174453 0  0.287797471442006 0.5222621440543902 0  0.3962628745986055 0.8097380085535307 0  0.3505895299554843 0.7304878890838692 0  0.5019151500495276 0.9356042615328103 0  0.9374389419410134 0.4999931039076005 0  0.3125 1 0  0.1875 1 0  1 0.5625 0  0.4375 1 0  1 0.3125 0  1 0.4375 0  0.8125 0 0  1 0.1875 0  0.5625 0 0  0.1875 0 0  0 0.1875 0  0 0.5625 0  0 0.6875 0  0 0.8125 0  1 0.6875 0  1 0.8125 0  0.8021696218581627 0.6612893947866073 0  0.06154922295426143 0.6239401126946708 0  0.9359375 0.9359375 0  0.4666158024849896 0.7691515918155014 0  0.2318201265217025 0.7064974250277525 0  0.1565954253579966 0.6635489312486841 0  0.1598132503680848 0.7787147500325552 0  0.3146529991605639 0.8510876378205265 0  0.1461873209418733 0.05982804528877814 0  0.06109554988524315 0.2446551776247686 0  0.8054950308560754 0.5564226538848541 0  0.470541749491976 0.8853316336952531 0  0.6948472567465137 0.4042308563372457 0  0.8802828472348889 0.4658893256343853 0  0.6788075634946739 0.7974194205806069 0  0.2155048659603867 0.2428201584940968 0  0.8131223143423806 0.2132171049028394 0  0.4330798005432235 0.6671274900735726 0  0.6015279126162613 0.2187368078743274 0  0.8061636571464289 0.8703766630361714 0  0.7008230445061776 0.3478568388444072 0  0.8638466246958771 0.3147095987735538 0  0.204801534004265 0.8789209409594009 0  0.2449006736431132 0.9424182882803838 0  0.7611268409371427 0.2643056884799992 0  0.7552800864046191 0.7678006649959446 0  0.5983639638906616 0.864113435029236 0  0.1956559506814437 0.577281203577426 0  0.3527670268164207 0.1320469097565204 0  0.7530364577483248 0.3262386077083089 0  0.4535919187979363 0.4690107087451527 0  0.8824869791666666 0.8336588541666666 0  0.8814453125 0.9451171875 0  0.5582987942628019 0.622421666543858 0  0.6817532446064828 0.6939001801354731 0  0.3830295138888889 0.9450968952922078 0  0.4140603937012541 0.05211333372716105 0  0.5535864501303013 0.3060591985391672 0  0.6560130086346878 0.2729726562211558 0  0.890203140221684 0.5948314305427268 0  0.7043857725999024 0.593980890020804 0  0.5105843922695152 0.8016828014338627 0  0.05365910753708378 0.7315110031682004 0  0.616904573672261 0.4621186633436136 0  0.5338511646455415 0.387875898899613 0  0.5231769258947843 0.4477682463140762 0  0.650302973237622 0.7370722302085519 0  0.3927483139621257 0.4662414504529014 0  0.8034595960585199 0.4972538342758211 0  0.7738337841682438 0.9496376207663251 0  0.7193737507158268 0.954685447650112 0  0.482525916480686 0.5528257169991676 0  0.2533501157346781 0.2809495420003238 0  0.3118487924482243 0.5702930126570319 0  0.6257598847669529 0.4104163315430518 0  0.1354166666666667 0.1955605158730158 0  0.04166666666666666 0.15625 0  0.3956448985530264 0.6174149462065157 0  0.8102897701818546 0.3938784238208349 0  0.2641154190013625 0.8344469561943118 0  0.642852220770013 0.5068794586563659 0  0.05271458179508221 0.355846947336007 0  0.7021551360070266 0.8921457280225779 0  0.5692125776683765 0.1328512638850284 0  0.5206162811937602 0.04865158770992991 0  0.6001838442201555 0.04540556991297563 0  0.2597716608242787 0.4118346398477178 0  0.4040584599473195 0.3179589136784675 0  0.1480337679295207 0.8941560631483065 0  0.1344356707112281 0.9466251177415842 0  0.7114696411829317 0.4983917389078826 0  0.7585704698442475 0.5751926345944629 0  0.2189131956390871 0.04022068508159698 0  0.2476935455192043 0.1123642267635843 0  0.185995005654517 0.1365524537205238 0  0.6223414373308711 0.643380839165121 0  0.5732602596637543 0.7190051747306219 0  0.268358222364537 0.6586246524467934 0  0.3265879848129173 0.2369791782191225 0  0.1267095595787346 0.7034787238999181 0  0.1115202922226038 0.6421997933884982 0  0.3128688392940203 0.07260997451790079 0  0.550724900485678 0.9253360991633187 0  0.7142608810459105 0.2384904702214873 0  0.7045869185243887 0.1871826897887429 0  0.890625 0.734375 0  0.953125 0.765625 0  0.2111812642821677 0.8286209446459138 0  0.9590293078204457 0.09375 0  0.953431269039847 0.1435719386408004 0  0.04097069217955424 0.90625 0  0.04656873096015299 0.8564280613591996 0  0.1078743037981226 0.8541621766048062 0  0.8921256962018773 0.1458378233951939 0  0.8521576979194619 0.1084496634207678 0  0.8655663982740958 0.05464346096571447 0  0.04005659640905543 0.09375 0  0.1001448316533417 0.04246776244228261 
[...]
<CellData  Vectors="f_8394-1"> 
<DataArray  type="Float64"  Name="f_8394-1"  NumberOfComponents="3" format="ascii">5.3806428345348157e-05  4.9706768109631707e-05 0.0000000000000000e+00  2.7648604958975276e-05  2.7844383139277184e-05 0.0000000000000000e+00  1.9313559396802019e-05  2.7167001581168636e-05 0.0000000000000000e+00  1.4698375566982054e-05  2.2575060969490974e-05 0.0000000000000000e+00  3.3219494162950226e-05  5.3694228521597835e-05 0.0000000000000000e+00  3.0317653947097423e-05  3.7019368775543427e-05 0.0000000000000000e+00  3.2486417639986329e-05  1.2104731317604100e-04 0.0000000000000000e+00  1.3306063688355470e-05  1.8366838638626240e-04 0.0000000000000000e+00  1.5431375496737719e-04  1.9359717402148380e-05 0.0000000000000000e+00  7.2398584620183204e-05  1.7252095704501192e-06 0.0000000000000000e+00  3.6990691544777805e-05  2.4091086485331920e-05 0.0000000000000000e+00  1.0614053655090154e-04  1.2810812582672679e-04 0.0000000000000000e+00  8.4233932648904481e-05  1.5926425982654263e-04 0.0000000000000000e+00  1.2673186254520333e-04  9.0890545703691564e-05 0.0000000000000000e+00  1.5849375563951410e-04  7.1939165754950052e-05 0.0000000000000000e+00  1.3904209249838154e-04  5.5425604980077284e-05 0.0000000000000000e+00  9.3489756274862436e-05  1.0333740329013464e-04 0.0000000000000000e+00  4.6877933176265745e-05  5.8669883354884402e-05 0.0000000000000000e+00  2.9975124345529746e-05  1.2261097378084651e-04 0.0000000000000000e+00  7.0326737130101022e-05  3.5154138794376107e-05 0.0000000000000000e+00  7.2337629766387431e-05  2.7170698970387255e-05 0.0000000000000000e+00  1.2682220628155872e-04  4.9930834097059079e-05 0.0000000000000000e+00  1.4143534882184441e-04  4.4693339162820022e-05 0.0000000000000000e+00  2.1151387975769300e-05  1.2595382996748172e-04 0.0000000000000000e+00  2.4781178273456288e-05  7.1017898578323879e-05 0.0000000000000000e+00  3.3046855704594512e-05  1.5587561346694752e-04 0.0000000000000000e+00  7.6776816054282330e-06  4.2425489972791060e-05 0.0000000000000000e+00  1.2231191545459267e-04  2.5116040793440235e-05 0.0000000000000000e+00  1.0967223379562415e-05  1.8079959423236976e-04 0.0000000000000000e+00  6.6000767964770882e-05  1.0435539398220479e-05 0.0000000000000000e+00  1.5861476785772706e-04  2.6897095826536400e-05 0.0000000000000000e+00  5.7082964795360560e-05  8.7250012007203371e-05 0.0000000000000000e+00  5.6245595520462100e-05  3.8876215942566676e-05 0.0000000000000000e+00  9.0645216609113455e-05  1.4447301361364428e-04 0.0000000000000000e+00  4.5899684798367638e-05  1.3869979591514365e-05 0.0000000000000000e+00  6.9338199264712159e-05  3.4413279468697835e-05 0.0000000000000000e+00  5.7819196863571563e-05  7.6817438741865734e-05 0.0000000000000000e+00  3.2728036633018541e-05  1.2997745659051662e-04 0.0000000000000000e+00  9.0611759751074977e-05  2.8984762870059443e-05 0.0000000000000000e+00  5.1801782020095057e-05  4.0281547109924886e-05 0.0000000000000000e+00  5.1742327843574662e-05  3.7039983938750872e-05 0.0000000000000000e+00  7.2529485413573523e-05  4.9100891524736272e-05 0.0000000000000000e+00  1.4503164240783079e-04  6.6675254776423436e-05 0.0000000000000000e+00  1.5890370315883672e-04  6.8670339290872570e-05 0.0000000000000000e+00  3.0515904783151763e-05  1.5047812100160504e-05 0.0000000000000000e+00  1.8494580513799615e-04  9.0336717464954781e-05 0.0000000000000000e+00  1.3633769541109101e-04  6.5655698684147112e-05 0.0000000000000000e+00  2.4564453990925837e-05  3.7533786182337155e-05 0.0000000000000000e+00  1.7626570403008122e-04  1.2903404264759060e-04 0.0000000000000000e+00  1.6997267186696509e-04  1.0496454212689942e-04 0.0000000000000000e+00  1.4356006948681812e-04  1.3849411079378205e-04 0.0000000000000000e+00  1.5834457088258715e-04  1.5539762318350070e-04 0.0000000000000000e+00  3.7870899479663971e-05  8.2559728578316893e-05 0.0000000000000000e+00  7.0750568097540485e-05  3.1218743801544843e-05 0.0000000000000000e+00  3.2861575616185666e-05  4.5986884886326563e-05 0.0000000000000000e+00  1.1093291876026088e-04  1.1284542393945354e-04 0.0000000000000000e+00  9.1114551728485268e-05  8.2343285889133568e-05 0.0000000000000000e+00  8.3588490023941807e-05  4.6651779640782453e-05 0.0000000000000000e+00  4.2924478576774921e-05  1.4475307943087054e-05 0.0000000000000000e+00  2.0524082856158280e-05  1.6854708614632359e-04 0.0000000000000000e+00  1.0217731327854553e-05  1.6024494004380482e-04 0.0000000000000000e+00  1.4376828182915819e-04  3.5390390998991110e-05 0.0000000000000000e+00  3.0254397457314790e-05  4.6761144219131783e-05 0.0000000000000000e+00  2.3735973430311325e-05  8.1386391118173611e-05 0.0000000000000000e+00  4.2184815560076356e-05  8.6091972684107236e-05 0.0000000000000000e+00  1.3135746187651175e-04  2.6700829401943601e-05 0.0000000000000000e+00  2.6476889700813685e-05  1.2854715802665420e-04 0.0000000000000000e+00  1.6997918142610917e-04  1.8207618469664086e-05 0.0000000000000000e+00  1.1448690937899488e-05  1.7631854515669348e-04 0.0000000000000000e+00  5.7291712304436901e-05  1.8537760434467703e-04 0.0000000000000000e+00  6.3034818726600723e-05  1.7260244410677167e-04 0.0000000000000000e+00  1.5128908705962566e-04  8.3748210052765883e-05 0.0000000000000000e+00  4.5903782365475665e-05  3.0133046601324065e-05 0.0000000000000000e+00  4.1578159891739694e-05  7.9258120896997551e-05 0.0000000000000000e+00  7.3942616773142600e-05  1.0705142894674130e-04 0.0000000000000000e+00  4.3900286427140561e-05  1.4288983822834472e-04 0.0000000000000000e+00  6.0592083431939544e-05  1.3992525613586827e-04 0.0000000000000000e+00  6.4478596058504666e-05  1.0237450359662388e-04 0.0000000000000000e+00  5.0513581381394364e-05  1.2882121075531535e-04 0.0000000000000000e+00  2.2899672070937699e-05  8.7407548762056899e-05 0.0000000000000000e+00  2.0023071239611122e-05  6.9196971638220775e-05 0.0000000000000000e+00  1.6115864600701357e-05  6.7310649178629450e-05 0.0000000000000000e+00  2.6390677228835846e-05  6.5241329265856491e-05 0.0000000000000000e+00  1.2683023616372858e-05  1.8699878873439284e-04 0.0000000000000000e+00  1.6645719717389080e-04  2.5496300611353983e-05 0.0000000000000000e+00  1.0104312731290643e-04  2.5351062263398012e-05 0.0000000000000000e+00  1.0643603404872183e-04  4.1691029613628401e-05 0.0000000000000000e+00  1.5557586603472709e-04  2.7101184340379529e-05 0.0000000000000000e+00  1.0952199221376243e-04  5.6812549832954019e-05 0.0000000000000000e+00  6.8490539377069298e-05  5.5145512896310677e-05 0.0000000000000000e+00  1.0746433782070256e-04  2.6804992187069025e-05 0.0000000000000000e+00  8.5142488331587033e-05  3.2494166526193467e-05 0.0000000000000000e+00  2.3509650988584214e-05  1.0586059312386491e-05 0.0000000000000000e+00  1.6061145055277137e-05  1.0338022939840705e-06 0.0000000000000000e+00  3.1106752748340348e-05  3.3000356619978084e-05 0.0000000000000000e+00  4.0429344282704818e-05  3.7502769464391707e-05 0.0000000000000000e+00  4.2941242725300424e-05  2.1984168885103857e-05 0.0000000000000000e+00  1.1294410216502231e-04  1.7974024935723504e-04 0.0000000000000000e+00  1.0894946679466323e-04  1.6442025748785748e-04 0.0000000000000000e+00  5.6942189796773998e-05  4.8771273891369157e-05 0.0000000000000000e+00  3.6874244161021567e-05  3.9814383561071185e-05 0.0000000000000000e+00  4.7139184924296806e-05  4.2107647185057480e-05 0.0000000000000000e+00  6.3971662105185973e-05  2.8541733853653721e-05 0.0000000000000000e+00  9.7887725550771434e-05  7.7453122801877166e-05 0.0000000000000000e+00  9.8337606488693052e-05  6.2952995881593055e-05 0.0000000000000000e+00  1.2201238416033447e-04  3.0016706910744807e-05 0.0000000000000000e+00  1.0266817270917507e-04  5.0196001200154503e-05 0.0000000000000000e+00  1.0588655137143933e-04  3.2220079535041320e-05 0.0000000000000000e+00  8.6704152054511819e-05  2.1007036943235906e-05 0.0000000000000000e+00  1.8529071667739927e-05  1.4975412702745937e-04 0.0000000000000000e+00  2.3404972529734477e-05  1.5825693354188446e-04 0.0000000000000000e+00  1.8214414870585991e-04  1.1429577412123926e-05 0.0000000000000000e+00  1.7679641115486689e-04  2.1579301423393360e-05 0.0000000000000000e+00  1.3206787971540998e-04  1.8874649316988102e-05 0.0000000000000000e+00  1.2938029450012883e-04  1.0553816657340081e-05 0.0000000000000000e+00  2.5037139886539605e-05  1.2439274302575469e-04 0.0000000000000000e+00  3.2642152623383140e-05  9.8872646728553440e-05 0.0000000000000000e+00  1.8149504993549278e-04  2.4806530698187699e-05 0.0000000000000000e+00  1.4033119671724096e-04  9.1353499886084557e-05 0.0000000000000000e+00  1.2058861213838058e-04  1.0549999414081415e-04 0.0000000000000000e+00  5.2835700652395231e-05  1.5368524995321918e-04 0.0000000000000000e+00  5.1933603681808378e-05  1.7512254839743127e-04 0.0000000000000000e+00  3.2789836241110369e-05  6.0242498559864057e-05 0.0000000000000000e+00  4.0619179807284227e-05  8.0028655623428255e-05 0.0000000000000000e+00  2.3977437900088140e-05  6.2294574978772775e-05 0.0000000000000000e+00  3.7183798155765045e-05  7.6464782734608606e-05 0.0000000000000000e+00  1.6201082718260307e-04  5.0957277617840846e-05 0.0000000000000000e+00  1.7264187355491424e-04  6.2031106515493680e-05 0.0000000000000000e+00  4.4512309958543360e-05  1.6812421280002128e-04 0.0000000000000000e+00  4.6676950167455931e-05  9.6950907777333784e-05 0.0000000000000000e+00  6.8325844772469310e-05  7.6550360971231994e-05 0.0000000000000000e+00  8.1519673345489490e-05  6.7434739379398885e-05 0.0000000000000000e+00  6.9676283034176393e-05  1.4818651797808314e-04 0.0000000000000000e+00  6.3213713466042559e-05  1.4742047202308213e-04 0.0000000000000000e+00  3.4414975641941558e-05  1.5502735081308487e-04 0.0000000000000000e+00  3.9636123858249345e-05  1.6817449543489048e-04 0.0000000000000000e+00  8.5394732857837122e-05  8.0488614828665470e-05 0.0000000000000000e+00  6.3931101926641506e-05  9.5303383168021189e-05 0.0000000000000000e+00  9.6999783711280616e-05  2.9681657801876225e-05 0.0000000000000000e+00  1.0842157636841104e-04  2.4853691591186253e-05 0.0000000000000000e+00  1.7620554060622740e-05  3.2462649900143726e-05 0.0000000000000000e+00  2.5115732109291704e-05  7.7849433905422212e-06 0.0000000000000000e+00  1.8660002629888082e-05  2.2140944774482160e-05 0.0000000000000000e+00  3.8657855824813604e-05  9.2797219134936470e-06 0.0000000000000000e+00  2.9348949674222563e-05  6.4242652732548187e-05 0.0000000000000000e+00  2.7571207862947548e-05  4.2060924242394532e-05 0.0000000000000000e+00  1.6990006261535749e-04  8.6010960618818511e-05 0.0000000000000000e+00  1.3470155351631832e-04  7.7071428768060764e-05 0.0000000000000000e+00  8.4506902898637767e-05  1.4758548193971648e-04 0.0000000000000000e+00  9.3114613240784626e-05  1.7218443140499710e-04 0.0000000000000000e+00  1.9083030579817145e-05  1.1327309921892431e-04 0.0000000000000000e+00  3.7790806592985636e-05  9.6517173644567134e-05 0.0000000000000000e+00  2.2254896763860721e-05  3.1435517197458499e-05 0.0000000000000000e+00  1.6364432485732693e-05  2.5459870604988368e-05 0.0000000000000000e+00  1.8517188124019528e-05  4.1003322484246907e-05 0.0000000000000000e+00  3.2090727451458655e-05  5.8733011231135137e-05 0.0000000000000000e+00  3.9875262395894868e-05  5.5845252366657958e-05 0.0000000000000000e+00  5.4582290200639459e-05  1.4984656545284170e-05 0.0000000000000000e+00  6.6440281920357563e-05  4.6866628867094820e-05 0.0000000000000000e+00  5.2412429268260063e-05  6.4245175408870255e-05 0.0000000000000000e+00  3.7525790472934156e-05  4.2906915703393061e-05 0.0000000000000000e+00  6.9829037003996016e-05  4.4279412013049181e-05 0.0000000000000000e+00  5.9537478473746019e-05  6.3472581112887876e-05 0.0000000000000000e+00  1.6533905774681400e-04  4.0581103457327581e-05 0.0000000000000000e+00  1.3675620950449863e-04  5.3214857611580394e-05 0.0000000000000000e+00  1.1624094363657705e-04  1.1668565926836983e-04 0.0000000000000000e+00  1.0935554511973613e-04  1.2067044040105477e-04 0.0000000000000000e+00  9.9327546560665683e-05  6.6963153538526161e-05 0.0000000000000000e+00  8.3881376787870482e-05  5.4402877718826682e-05 0.0000000000000000e+00  4.9296385617987890e-05  5.6284945893738266e-05 0.0000000000000000e+00  3.0403498556271110e-05  3.5790331599784633e-05 0.0000000000000000e+00  3.6391600932296909e-05  1.5933669590981431e-04 0.0000000000000000e+00  2.4559190194778065e-05  1.9557314535956509e-04 0.0000000000000000e+00  1.5397578549237396e-04  1.8568968101638757e-04 0.0000000000000000e+00  1.4359779262582104e-04  1.6638822059909024e-04 0.0000000000000000e+00  5.4862519525186981e-05  6.0186939565847179e-05 0.0000000000000000e+00  4.2559624879180020e-05  8.3153124769895894e-05 0.0000000000000000e+00  9.5561618892633080e-05  2.3839545271296631e-05 0.0000000000000000e+00  8.0269508778645408e-05  3.5316057704365515e-05 0.0000000000000000e+00  1.6877141442603411e-04  1.5943512330992706e-04 0.0000000000000000e+00  1.5561781129312536e-04  1.6474967683523316e-04 0.0000000000000000e+00  1.8557738708458419e-05  3.6562424286651812e-05 0.0000000000000000e+00  1.7284268372554800e-05  4.0767562369824561e-05 0.0000000000000000e+00  5.2715322914163148e-05  1.8438584363942009e-04 0.0000000000000000e+00  7.4230127982444466e-05  1.8401782582058257e-04 0.0000000000000000e+00  8.6579687967319423e-05  1.7015037016038394e-04 0.0000000000000000e+00  7.4802863302696860e-05  1.7884728648021722e-04 0.0000000000000000e+00  1.1470139104984160e-04  1.4219900966408795e-05 0.0000000000000000e+00  5.6633449530695049e-05  4.0440754079506058e-05 0.0000000000000000e+00  6.0860039367949069e-05  4.4251691102341323e-05 0.0000000000000000e+00  9.4365763684757558e-05  7.8807045379506271e-05 0.0000000000000000e+00  8.7606289777374230e-05  8.9535706671024150e-05 0.0000000000000000e+00  3.7198118843136211e-05  7.7089583816343664e-05 0.0000000000000000e+00  2.8866850389619797e-05  7.3463331732603827e-05 0.0000000000000000e+00  9.4644518614913056e-05  2.1181954701249679e-05 0.0000000000000000e+00  9.3734211101243603e-05  2.6498603333518761e-05 0.0000000000000000e+00  9.5911258180394473e-05  4.2243096785679245e-05 0.0000000000000000e+00  8.0769758787064877e-05  2.9191385186382806e-05 0.0000000000000000e+00  5.2983441579841104e-05  1.2156336582587045e-04 0.0000000000000000e+00  4.4704398786580592e-05  9.9228241817268039e-05 0.0000000000000000e+00  4.4852162959200669e-05  9.7626231641396945e-05 0.0000000000000000e+00  4.5480631528004552e-05  1.0889236667913873e-04 0.0000000000000000e+00  3.7415526433915801e-05  1.8888276298088280e-05 0.0000000000000000e+00  2.6778103124661131e-05  3.5022474109456024e-05 0.0000000000000000e+00  6.8079864973511040e-05  7.3499813179601017e-05 0.0000000000000000e+00  8.1286301700097069e-05  7.6784828407701867e-05 0.0000000000000000e+00  4.9097290092286219e-05  4.0168468225063301e-05 0.0000000000000000e+00  1.3694013657986059e-05  5.6990001187106235e-05 0.0000000000000000e+00  3.3807393471526313e-05  1.9020856385766782e-05 0.0000000000000000e+00  6.9914870780952697e-05  4.8533096928572208e-05 0.0000000000000000e+00  7.9372908979155398e-05  2.9472126569662844e-05 0.0000000000000000e+00  5.2098463452312194e-05  4.4836832083413675e-05 0.0000000000000000e+00  4.7101888200586934e-05  5.5425250884921418e-05 0.0000000000000000e+00  5.0592010358988420e-05  4.4972373182963693e-05 0.0000000000000000e+00  3.6815365984938602e-05  3.0568015053888253e-05 0.0000000000000000e+00  1.7580128769347986e-04  9.3092620580895085e-05 0.0000000000000000e+00  1.7431991401845921e-04  1.0654792970895494e-04 0.0000000000000000e+00  1.6275597499969130e-04  9.0108220419414883e-05 0.0000000000000000e+00  1.6031210088376588e-04  1.6294359952665497e-04 0.0000000000000000e+00  1.0624994869537800e-04  1.8550484785687641e-04 0.0000000000000000e+00  2.4264632731664182e-05  1.2114387631684488e-04 0.0000000000000000e+00  2.4080236438975738e-05  1.0455278107950617e-04 0.0000000000000000e+00  1.3769864991885995e-04  2.5190163597768637e-05 0.0000000000000000e+00  1.8207228079335100e-04  1.2602239486381893e-05 0.0000000000000000e+00  8.1680256169841623e-05  4.9920720203851807e-05 0.0000000000000000e+00  4.9599526507936584e-05  4.2084614205758633e-05 0.0000000000000000e+00  4.2018819532844687e-05  2.6741806461463040e-05 0.0000000000000000e+00  3.7394109547477800e-05  2.7975115924332032e-05 0.0000000000000000e+00  1.3495175162696086e-04  1.4051419169932314e-04 0.0000000000000000e+00  1.5152779795345140e-04  1.3980148708336683e-04 0.0000000000000000e+00  3.6028220653991208e-05  4.3885436165011854e-05 0.0000000000000000e+00  7.4211703662872800e-05  4.1469946498606053e-05 0.0000000000000000e+00  1.8423348470860013e-05  1.1384965730024704e-04 0.0000000000000000e+00  2.8160551534537138e-05  9.0781047207440021e-05 0.0000000000000000e+00  1.4529028258915538e-04  2.4217635011544892e-05 0.0000000000000000e+00  1.5831036526708873e-04  2.2831023127992467e-05 0.0000000000000000e+00  1.6675924441168536e-04  1.8839114777800911e-05 0.0000000000000000e+00  1.1938745923873387e-04  5.3508031293199213e-06 0.0000000000000000e+00  1.0037568331682522e-04  1.4938271055062132e-05 0.0000000000000000e+00  9.7699064787872713e-05  5.3752876328779517e-05 0.0000000000000000e+00  1.1910896897950166e-04  2.9071841681089893e-05 0.0000000000000000e+00  1.6684259688376567e-04  1.4257264558594976e-04 0.0000000000000000e+00  5.9545926236062939e-05  1.4266391185308651e-04 0.0000000000000000e+00  5.9699157324340416e-05  1.1767086687663213e-04 0.0000000000000000e+00  1.7250055725904562e-04  3.3346798895949342e-05 0.0000000000000000e+00  1.6508884544213021e-04  4.7629608181054130e-05 0.0000000000000000e+00  2.1557588270761519e-04  3.7053150644219337e-06 0.0000000000000000e+00  1.9061222241564438e-05  1.8479428912583366e-04 0.0000000000000000e+00  3.2282245761018126e-06  2.0722393062512303e-04 0.0000000000000000e+00  3.8889945788181584e-05  5.4192957242249400e-05 0.0000000000000000e+00  2.1129149504423131e-05  7.0662910563989100e-05 0.0000000000000000e+00  2.3279425174179039e-05  2.7066889926031272e-05 0.0000000000000000e+00  2.4240492263788449e-05  3.8673469641774960e-05 0.0000000000000000e+00  4.1681691078524779e-05  4.0106008981589729e-05 0.0000000000000000e+00  2.8942596393522978e-05  8.4557518838957038e-05 0.0000000000000000e+00  2.4420390403059551e-05  5.4608011075749390e-05 0.0000000000000000e+00  1.3235917705667371e-05  2.1484262318630091e-05 0.0000000000000000e+00  1.9751286163487239e-05  4.2904241215215846e-05 0.0000000000000000e+00  2.1030223097613842e-05  1.2565066798066550e-05 0.0000000000000000e+00  1.0213378274857010e-04  9.6820284842768714e-05 0.0000000000000000e+00  1.1392319537925215e-04  9.5217178532720474e-05 0.0000000000000000e+00  2.5997745441591784e-05  -4.0369205003984448e-06 0.0000000000000000e+00  2.6811873354747494e-05  -1.7359867314708779e-06 0.0000000000000000e+00  2.4308036432880687e-05  5.0657089126464543e-05 0.0000000000000000e+00  1.5313641210767864e-04  1.1808177573663604e-04 0.0000000000000000e+00  1.4132782556114387e-04  1.3835796118219872e-04 0.0000000000000000e+00  3.7225963508601365e-05  3.0635262985371402e-05 0.0000000000000000e+00  1.9755627520739178e-05  2.7092936161467266e-05 0.0000000000000000e+00  3.9615853165490986e-05  2.6562487722405520e-05 0.0000000000000000e+00  6.9173364680235089e-05  1.8246232123542258e-05 0.0000000000000000e+00  3.1001868537578463e-05  5.5291637901275113e-05 0.0000000000000000e+00  1.4182736300812376e-05  5.7125824952908657e-05 0.0000000000000000e+00  3.9378980956650133e-05  7.0927488850249039e-05 0.0000000000000000e+00  3.1657286967435443e-05  6.7121287545126297e-05 0.0000000000000000e+00  3.7062463680176691e-05  1.3564137523338740e-04 0.0000000000000000e+00  4.0407703842303499e-05  1.3814544236214306e-04 0.0000000000000000e+00  3.6148945022053789e-05  9.3258556957911588e-05 0.0000000000000000e+00  3.4841899156270308e-05  1.1675923938771947e-04 0.0000000000000000e+00  6.0197168249959544e-05  1.8813171013346439e-04 0.0000000000000000e+00  5.0400253899899388e-05  1.9829020294965594e-04 0.0000000000000000e+00  1.8