<?xml version="1.0"?>
<VTKFile type="UnstructuredGrid"  version="0.1"  >
<UnstructuredGrid>
<Piece  NumberOfPoints="1385" NumberOfCells="2640">
<Points>
<DataArray  type="Float64"  NumberOfComponents="3"  format="ascii">0 0 0  1 0 0  1 1 0  0 1 0  0.5 0 0  1 0.5 0  0.5 1 0  0 0.5 0  0.5 0.5 0  0 0.25 0  0.25 0 0  0.25 1 0  0 0.75 0  1 0.25 0  0.75 0 0  1 0.75 0  0.75 1 0  0.7083333333333333 0.2916666666666667 0  0.2916666666666666 0.7083333333333334 0  0.375 0.25 0  0.75 0.625 0  0.2569444444444444 0.4652777777777778 0  0.5366379310344828 0.7535919540229885 0  0.1875 0.1875 0  0.8125 0.8125 0  0.869047619047619 0.375 0  0.1450441919191919 0.6052714646464646 0  0.375 0.8690476190476191 0  0.5526960784313725 0.1825980392156862 0  0.8385416666666666 0.1614583333333334 0  0.1614583333333333 0.8385416666666667 0  0.6736111111111112 0.4652777777777778 0  0.1367521367521368 0.3477564102564102 0  0.6570970491253563 0.8648656830417855 0  0.5102479397556124 0.3386260301221938 0  0.3654513888888889 0.5737847222222222 0  0.6929750044954185 0.1362784921584263 0  0.388576102743835 0.411911725237599 0  0.6091269841269842 0.5942460317460317 0  0.875 0.6875 0  0.427278890279516 0.119889445139758 0  0.8544456845238095 0.5213913690476191 0  0.125 0 0  0 0.125 0  1 0.875 0  0.875 1 0  0.1280008648150532 0.4769292340226777 0  0.2695382451711197 0.3321750950221553 0  0.7031567235715964 0.7447810921428012 0  0.625 0 0  0.375 0 0  0.125 1 0  0.875 0 0  0 0.375 0  0 0.625 0  1 0.375 0  0.375 1 0  1 0.125 0  0 0.875 0  0.625 1 0  1 0.625 0  0.2979288363930608 0.1201429454643536 0  0.410919540229885 0.7484605911330049 0  0.5325041980395562 0.878905151526474 0  0.4831670727569156 0.6331060043826487 0  0.1735997378973042 0.7204747378973043 0  0.2534919507575758 0.5772372159090909 0  0.2633928571428572 0.8876488095238095 0  0.8199404761904761 0.2730654761904762 0  0.75830270586982 0.3919383189517417 0  0.5750282248382511 0.4237522353023667 0  0.6008360210023379 0.2794828358598495 0  0.08163442644334186 0.6821295860397322 0  0.08333333333333333 0.1875 0  0.2028380815996574 0.08844602719988583 0  0.2766521142611967 0.2325436572164097 0  0.90625 0.78125 0  0.890625 0.890625 0  0.7545696325008384 0.8973565441669461 0  0.5625 0.08086590340834317 0  0.09077380952380953 0.09077380952380952 0  0.4610923478694773 0.209034015149656 0  0.7542527598351648 0.5248380520595106 0  0.6459235536037465 0.3619913988405765 0  0.7560381768882634 0.20506142233852 0  0.07073252688172042 0.8125 0  0.0924753097241701 0.9078102849914793 0  0.9292674731182795 0.1875 0  0.9075246902758297 0.09218971500852073 0  0.8125 0.07073252688172045 0  0.2400955776842301 0.7869705776842302 0  0.9121050213379069 0.2781978201831695 0  0.7916878157143976 0.7239689078571988 0  0.9345238095238094 0.4375 0  0.4375 0.9345238095238095 0  0.3725616989755203 0.6651895248862173 0  0.06536271996350887 0.5625 0  0.9348362560379583 0.5625 0  0.456646798987055 0.8277247094351965 0  0.1875 0.9355758238725954 0  0.6169761231634859 0.6939779188977889 0  0.6226854751147515 0.7827911461419014 0  0.3305695598137626 0.7901697871282585 0  0.5865305325818898 0.5101085479043448 0  0.6622701297028378 0.2177663989757395 0  0.1354166666666667 0.2591702279202279 0  0 0.3125 0  0.2094429575680048 0.3936361846162499 0  0.836666296419157 0.607917407161686 0  0.6875 1 0  0.214261555450504 0.6492551722020035 0  0 0.4375 0  0.07731537126068377 0.40625 0  0.3427725432967068 0.4879566233699599 0  0.3550792513951871 0.3331953632609953 0  0.4462473953896857 0.2887834789342508 0  0.4747801464819794 0.417386052030127 0  0.8229836475148948 0.4443292349237342 0  0.7322605135514757 0.8199240278289671 0  0.6756431877205955 0.5468989748126787 0  0.1968419507215863 0.5194573482612496 0  0.3285590277777778 0.9345238095238095 0  0.8125 1 0  0.4198917601920009 0.5134893045331258 0  0.5232405503206691 0.2595791787880157 0  1 0.9375 0  0.1987510870015086 0.3025185951894431 0  0.5625 1 0  0.6005390654136388 0.9228110509230952 0  0.6411254848194414 0.07704872765442942 0  0.3357233162523242 0.1855113224530532 0  0.6730653396610877 0.6393887462324165 0  0.310966987234063 0.6240019765311626 0  0.7368737836204349 0.07457755202327881 0  0.6192316414418171 0.1485238406378594 0  0.5432429670607106 0.678552703844006 0  0.4754371679695679 0.7103946803120881 0  0.07501324890749672 0.3043839897335739 0  0.5358146975860403 0.5688321463205916 0  0.3115271739500156 0.3982137365971444 0  0.3625191397122174 0.0767854603650549 0  0.5024029442563831 0.1264128223758444 0  0.4375 0 0  0.4699946908887376 0.06379961173775725 0  0.9375 0.71875 0  0.9272105898044465 0.635671179608893 0  0.9375 1 0  0.6690971819568612 0.9331530898202766 0  0.1073454944778885 0.7499206387638554 0  0.8699082999280406 0.2232403652524313 0  0.5773118091863964 0.3548027349159383 0  0.1354166666666667 0.1428571428571428 0  0.3125 0 0  0.8241684193077341 0.9257452995055244 0  0.4352314948354036 0.3586940847489378 0  0.4351301473778832 0.5819726043539077 0  0.8073232928518163 0.3419398170341962 0  0.7775949246947366 0.1298519409204575 0  0.6875 0 0  0.7413513991851041 0.457933324954483 0  0.939453125 0.841796875 0  0.5630355154606987 0.8171875156478349 0  0.9345238095238095 0.3461466592368577 0  0.9375 0 0  1 0.0625 0  0.0625 1 0  0 0.9375 0  0.06552178593177167 0.4969053669623468 0  0.1424866619031703 0.4130277709291224 0  0.1275287182444726 0.5422946908002588 0  0.2637686595586339 0.06413888464529549 0  0.2524263535491086 0.1697437503243817 0  0.7367218397988525 0.6888573970660841 0  0.0625 0 0  0 0.0625 0  0.8463594539285995 0.7578283617857982 0  0.3128751192101563 0.2851997374369947 0  0.4015281788351144 0.1806421385113692 0  0.1910251795116588 0.4553332197174453 0  0.287797471442006 0.5222621440543902 0  0.3962628745986055 0.8097380085535307 0  0.3505895299554843 0.7304878890838692 0  0.5019151500495276 0.9356042615328103 0  0.9374389419410134 0.4999931039076005 0  0.3125 1 0  0.1875 1 0  1 0.5625 0  0.4375 1 0  1 0.3125 0  1 0.4375 0  0.8125 0 0  1 0.1875 0  0.5625 0 0  0.1875 0 0  0 0.1875 0  0 0.5625 0  0 0.6875 0  0 0.8125 0  1 0.6875 0  1 0.8125 0  0.8021696218581627 0.6612893947866073 0  0.06154922295426143 0.6239401126946708 0  0.9359375 0.9359375 0  0.4666158024849896 0.7691515918155014 0  0.2318201265217025 0.7064974250277525 0  0.1565954253579966 0.6635489312486841 0  0.1598132503680848 0.7787147500325552 0  0.3146529991605639 0.8510876378205265 0  0.1461873209418733 0.05982804528877814 0  0.06109554988524315 0.2446551776247686 0  0.8054950308560754 0.5564226538848541 0  0.470541749491976 0.8853316336952531 0  0.6948472567465137 0.4042308563372457 0  0.8802828472348889 0.4658893256343853 0  0.6788075634946739 0.7974194205806069 0  0.2155048659603867 0.2428201584940968 0  0.8131223143423806 0.2132171049028394 0  0.4330798005432235 0.6671274900735726 0  0.6015279126162613 0.2187368078743274 0  0.8061636571464289 0.8703766630361714 0  0.7008230445061776 0.3478568388444072 0  0.8638466246958771 0.3147095987735538 0  0.204801534004265 0.8789209409594009 0  0.2449006736431132 0.9424182882803838 0  0.7611268409371427 0.2643056884799992 0  0.7552800864046191 0.7678006649959446 0  0.5983639638906616 0.864113435029236 0  0.1956559506814437 0.577281203577426 0  0.3527670268164207 0.1320469097565204 0  0.7530364577483248 0.3262386077083089 0  0.4535919187979363 0.4690107087451527 0  0.8824869791666666 0.8336588541666666 0  0.8814453125 0.9451171875 0  0.5582987942628019 0.622421666543858 0  0.6817532446064828 0.6939001801354731 0  0.3830295138888889 0.9450968952922078 0  0.4140603937012541 0.05211333372716105 0  0.5535864501303013 0.3060591985391672 0  0.6560130086346878 0.2729726562211558 0  0.890203140221684 0.5948314305427268 0  0.7043857725999024 0.593980890020804 0  0.5105843922695152 0.8016828014338627 0  0.05365910753708378 0.7315110031682004 0  0.616904573672261 0.4621186633436136 0  0.5338511646455415 0.387875898899613 0  0.5231769258947843 0.4477682463140762 0  0.650302973237622 0.7370722302085519 0  0.3927483139621257 0.4662414504529014 0  0.8034595960585199 0.4972538342758211 0  0.7738337841682438 0.9496376207663251 0  0.7193737507158268 0.954685447650112 0  0.482525916480686 0.5528257169991676 0  0.2533501157346781 0.2809495420003238 0  0.3118487924482243 0.5702930126570319 0  0.6257598847669529 0.4104163315430518 0  0.1354166666666667 0.1955605158730158 0  0.04166666666666666 0.15625 0  0.3956448985530264 0.6174149462065157 0  0.8102897701818546 0.3938784238208349 0  0.2641154190013625 0.8344469561943118 0  0.642852220770013 0.5068794586563659 0  0.05271458179508221 0.355846947336007 0  0.7021551360070266 0.8921457280225779 0  0.5692125776683765 0.1328512638850284 0  0.5206162811937602 0.04865158770992991 0  0.6001838442201555 0.04540556991297563 0  0.2597716608242787 0.4118346398477178 0  0.4040584599473195 0.3179589136784675 0  0.1480337679295207 0.8941560631483065 0  0.1344356707112281 0.9466251177415842 0  0.7114696411829317 0.4983917389078826 0  0.7585704698442475 0.5751926345944629 0  0.2189131956390871 0.04022068508159698 0  0.2476935455192043 0.1123642267635843 0  0.185995005654517 0.1365524537205238 0  0.6223414373308711 0.643380839165121 0  0.5732602596637543 0.7190051747306219 0  0.268358222364537 0.6586246524467934 0  0.3265879848129173 0.2369791782191225 0  0.1267095595787346 0.7034787238999181 0  0.1115202922226038 0.6421997933884982 0  0.3128688392940203 0.07260997451790079 0  0.550724900485678 0.9253360991633187 0  0.7142608810459105 0.2384904702214873 0  0.7045869185243887 0.1871826897887429 0  0.890625 0.734375 0  0.953125 0.765625 0  0.2111812642821677 0.8286209446459138 0  0.9590293078204457 0.09375 0  0.953431269039847 0.1435719386408004 0  0.04097069217955424 0.90625 0  0.04656873096015299 0.8564280613591996 0  0.1078743037981226 0.8541621766048062 0  0.8921256962018773 0.1458378233951939 0  0.8521576979194619 0.1084496634207678 0  0.8655663982740958 0.05464346096571447 0  0.04005659640905543 0.09375 0  0.1001448316533417 0.04246776244228261 
[...]
<CellData  Vectors="f_8394-1"> 
<DataArray  type="Float64"  Name="f_8394-1"  NumberOfComponents="3" format="ascii">1.8988878640557619e-04  1.5788212687111841e-04 0.0000000000000000e+00  3.9463228503728984e-05  7.4328642298606592e-05 0.0000000000000000e+00  5.8315609179857932e-05  6.7923414135404321e-05 0.0000000000000000e+00  2.5131927950265240e-05  2.8392765448989222e-05 0.0000000000000000e+00  8.2197360093448873e-05  1.6236545742605589e-04 0.0000000000000000e+00  6.4636439042756817e-05  5.1418788892563913e-05 0.0000000000000000e+00  3.7025488066074438e-05  5.2429294818518606e-04 0.0000000000000000e+00  3.9293738399146370e-05  7.4389385800838019e-04 0.0000000000000000e+00  6.3757980213862580e-04  2.1357473221229542e-05 0.0000000000000000e+00  2.8736059948488037e-04  1.3856554147618167e-05 0.0000000000000000e+00  1.1538946237451194e-04  4.1171627337970447e-05 0.0000000000000000e+00  4.5498430669905430e-04  5.4426797810617209e-04 0.0000000000000000e+00  3.5843491641840116e-04  6.7071528482568919e-04 0.0000000000000000e+00  5.2630104407952840e-04  3.8459132655325822e-04 0.0000000000000000e+00  6.5759556928229131e-04  3.0673825444930660e-04 0.0000000000000000e+00  5.6013945700073638e-04  2.0405398604195023e-04 0.0000000000000000e+00  3.8664613998491118e-04  4.2988193532126658e-04 0.0000000000000000e+00  1.6894530730881573e-04  1.8865379609717513e-04 0.0000000000000000e+00  8.9531579720500399e-05  4.6384495479872163e-04 0.0000000000000000e+00  2.6657498192863340e-04  8.0487790794394638e-05 0.0000000000000000e+00  2.8595115054002288e-04  4.7576460538513012e-05 0.0000000000000000e+00  5.1831212764069971e-04  1.9182128569976114e-04 0.0000000000000000e+00  5.6943829222163992e-04  1.8247500436946768e-04 0.0000000000000000e+00  6.9410513000913479e-05  5.1275028502838552e-04 0.0000000000000000e+00  9.6487798770185100e-05  2.4587400362630117e-04 0.0000000000000000e+00  1.2060679652857394e-04  5.9778029973846605e-04 0.0000000000000000e+00  7.8044108928171245e-06  4.2256623914195885e-05 0.0000000000000000e+00  4.6044081261324341e-04  4.4021994602770136e-05 0.0000000000000000e+00  4.0796045173540791e-05  7.2970908726414430e-04 0.0000000000000000e+00  2.7490403302206823e-04  2.7800043797578670e-05 0.0000000000000000e+00  6.2374023769966552e-04  8.6642002160169709e-05 0.0000000000000000e+00  2.5247348968263788e-04  3.4938644490305573e-04 0.0000000000000000e+00  2.6647324892340336e-04  1.2790012488341290e-04 0.0000000000000000e+00  3.8357963471496602e-04  6.1061422499979678e-04 0.0000000000000000e+00  1.2303473235140936e-04  4.7211516328905391e-05 0.0000000000000000e+00  1.5028521478977521e-04  9.3049797261546261e-05 0.0000000000000000e+00  1.8438357648835677e-04  2.5421346618506737e-04 0.0000000000000000e+00  9.4650814650235654e-05  5.3641115400425475e-04 0.0000000000000000e+00  4.0657536241991412e-04  3.0675614160747046e-05 0.0000000000000000e+00  1.6153236557946260e-04  1.5993380093700708e-04 0.0000000000000000e+00  1.5510518581119835e-04  1.5212913551566825e-04 0.0000000000000000e+00  2.7815877484095754e-04  1.5855265963460045e-04 0.0000000000000000e+00  6.0342642762610185e-04  2.7855482414011317e-04 0.0000000000000000e+00  6.5933738016658763e-04  2.9246966587472326e-04 0.0000000000000000e+00  9.6093524608378876e-05  1.7966521174945713e-05 0.0000000000000000e+00  7.8336490478024827e-04  3.8606650017600723e-04 0.0000000000000000e+00  5.5612869337980922e-04  2.7998983635020255e-04 0.0000000000000000e+00  5.4864568086898698e-05  3.8468792729547273e-05 0.0000000000000000e+00  7.6298795329901548e-04  5.6956371535046000e-04 0.0000000000000000e+00  7.2729444586095413e-04  4.5405699823523893e-04 0.0000000000000000e+00  6.3077099371987007e-04  5.9567377526039593e-04 0.0000000000000000e+00  7.0298583259564916e-04  6.7348939973659201e-04 0.0000000000000000e+00  7.6551442757508126e-05  2.8367732643602180e-04 0.0000000000000000e+00  1.4227993583713674e-04  8.6376278193769698e-05 0.0000000000000000e+00  7.8488271721338868e-05  1.6253247666883619e-04 0.0000000000000000e+00  4.7406286820635975e-04  4.7800153637670979e-04 0.0000000000000000e+00  3.7460973817514040e-04  3.4148567666051087e-04 0.0000000000000000e+00  3.5532225230900554e-04  5.4875434439220715e-05 0.0000000000000000e+00  1.3649613419109463e-04  2.7754925937147670e-05 0.0000000000000000e+00  2.9310968219322794e-05  6.5957568897840886e-04 0.0000000000000000e+00  3.5963327280870185e-05  6.4510210841033490e-04 0.0000000000000000e+00  5.9149146845981888e-04  3.6597293076288731e-05 0.0000000000000000e+00  3.0267321011467787e-05  1.2420677981514277e-04 0.0000000000000000e+00  3.6913097441483576e-05  3.0407753037622220e-04 0.0000000000000000e+00  4.2172449602017693e-05  3.3072640417337515e-04 0.0000000000000000e+00  5.4920677841957955e-04  1.1081891452396342e-04 0.0000000000000000e+00  7.3969187889642385e-05  4.9871516343446989e-04 0.0000000000000000e+00  6.9071483276850556e-04  2.1011132088076275e-05 0.0000000000000000e+00  3.3575600048800086e-05  7.2589095111519071e-04 0.0000000000000000e+00  2.4488494591600330e-04  7.7668703946242007e-04 0.0000000000000000e+00  2.6560687960389302e-04  7.1801611973356229e-04 0.0000000000000000e+00  6.3308033487942687e-04  3.5888213388447044e-04 0.0000000000000000e+00  6.5318023761925831e-05  9.0599430639617923e-05 0.0000000000000000e+00  1.8649125438663096e-04  2.9183677096942563e-04 0.0000000000000000e+00  3.1199118306067812e-04  4.2372722904957796e-04 0.0000000000000000e+00  1.7361116002434580e-04  5.7482437681635312e-04 0.0000000000000000e+00  2.5378894526119491e-04  5.8241937639682770e-04 0.0000000000000000e+00  2.4296426393738757e-04  3.9384002768810269e-04 0.0000000000000000e+00  1.8898616955009516e-04  4.9508097483269879e-04 0.0000000000000000e+00  2.7860205592523658e-05  3.9240453384340639e-04 0.0000000000000000e+00  2.6695450235608057e-05  3.0982648355395097e-04 0.0000000000000000e+00  3.0808811589586667e-05  2.7563665528098936e-04 0.0000000000000000e+00  7.6945150529558615e-05  2.3248349898028335e-04 0.0000000000000000e+00  5.5968577629282036e-05  7.5339699754666987e-04 0.0000000000000000e+00  6.5388389892992893e-04  8.3153441431249310e-05 0.0000000000000000e+00  4.2782693192168508e-04  5.1035782638601965e-05 0.0000000000000000e+00  4.0501406660132800e-04  1.4035914153418325e-04 0.0000000000000000e+00  6.2189739299816542e-04  1.1966826682371020e-04 0.0000000000000000e+00  3.9772417880562972e-04  2.0556553367455667e-04 0.0000000000000000e+00  2.4792581553138214e-04  1.7361101254203970e-04 0.0000000000000000e+00  3.4553513800408175e-04  4.7475868923780607e-05 0.0000000000000000e+00  3.2211603049339872e-04  9.5354301873151471e-05 0.0000000000000000e+00  2.3809669877065949e-05  4.9064291499131016e-05 0.0000000000000000e+00  3.4937886180162171e-05  9.7238889585930774e-06 0.0000000000000000e+00  6.1613281245468572e-05  6.3274959769556722e-05 0.0000000000000000e+00  9.6326776211668345e-05  5.5659135211172577e-05 0.0000000000000000e+00  1.2750044931556857e-04  3.6053348303382110e-05 0.0000000000000000e+00  4.8359142885343780e-04  7.7337403828058352e-04 0.0000000000000000e+00  4.7083742448723322e-04  7.0995931212718643e-04 0.0000000000000000e+00  2.2269398714630693e-04  5.3896769935951306e-05 0.0000000000000000e+00  1.8390843328049255e-04  4.2915249160085005e-05 0.0000000000000000e+00  1.9895388001106410e-04  9.1032235701407046e-05 0.0000000000000000e+00  1.8626577374151999e-04  6.1512810078606290e-05 0.0000000000000000e+00  3.9332066899744144e-04  3.0641197408668038e-04 0.0000000000000000e+00  3.8120251335698271e-04  2.5909328360615452e-04 0.0000000000000000e+00  5.0479870969141315e-04  1.3512279154964468e-04 0.0000000000000000e+00  3.9111210628014440e-04  1.7907682938411135e-04 0.0000000000000000e+00  4.3567605864051537e-04  6.2654462436586569e-05 0.0000000000000000e+00  3.7037245736388407e-04  3.4777680117527003e-05 0.0000000000000000e+00  2.2107071428905021e-05  6.2857646346230743e-04 0.0000000000000000e+00  3.3450699361657304e-05  6.3338833273169227e-04 0.0000000000000000e+00  7.2512587549226838e-04  2.3885529813986468e-05 0.0000000000000000e+00  6.9563102610778742e-04  5.3036524489802763e-05 0.0000000000000000e+00  5.3997910406208751e-04  2.2366341638934691e-05 0.0000000000000000e+00  5.1900173641972105e-04  1.2479903035501230e-05 0.0000000000000000e+00  4.4672953659324228e-05  5.2199229893944838e-04 0.0000000000000000e+00  8.5985670231069887e-05  3.8239648349961775e-04 0.0000000000000000e+00  7.1606935870673679e-04  8.1258290147501742e-05 0.0000000000000000e+00  5.9428766220962187e-04  3.9242933095679064e-04 0.0000000000000000e+00  5.0917030417365120e-04  4.5521677758237906e-04 0.0000000000000000e+00  2.2093624531527862e-04  6.1988791956394014e-04 0.0000000000000000e+00  2.1689111148168161e-04  7.2502072465518823e-04 0.0000000000000000e+00  6.8869612994562805e-05  2.8115595879092816e-04 0.0000000000000000e+00  1.2935069254569855e-04  3.3371767511092352e-04 0.0000000000000000e+00  2.5550815829158330e-05  2.5593460571411892e-04 0.0000000000000000e+00  4.3142241806921581e-05  2.6017038840004558e-04 0.0000000000000000e+00  6.7136293550342961e-04  2.1636438951303422e-04 0.0000000000000000e+00  7.2202515172533016e-04  2.6415557769769770e-04 0.0000000000000000e+00  1.7854473675297288e-04  6.7737321319956997e-04 0.0000000000000000e+00  1.7954900391177028e-04  3.9438795305446830e-04 0.0000000000000000e+00  2.7784912620774731e-04  3.1177900232869186e-04 0.0000000000000000e+00  3.1616572567118008e-04  2.9000399610970535e-04 0.0000000000000000e+00  2.9510685702562739e-04  6.1878072003695734e-04 0.0000000000000000e+00  2.6399196360758455e-04  6.0359947535823283e-04 0.0000000000000000e+00  1.3617778412175035e-04  6.0706032479041405e-04 0.0000000000000000e+00  1.6406220492375098e-04  6.7831816940131949e-04 0.0000000000000000e+00  3.5786320535221607e-04  3.3262331061418660e-04 0.0000000000000000e+00  2.3118730002979188e-04  3.5340663124794162e-04 0.0000000000000000e+00  4.0564066999896942e-04  4.9827916396126879e-05 0.0000000000000000e+00  4.4046941190051166e-04  7.2875296309508731e-05 0.0000000000000000e+00  4.3437265989222568e-05  6.4800773441246788e-05 0.0000000000000000e+00  3.5313596164962508e-05  4.3052901046364800e-05 0.0000000000000000e+00  2.1390415186239247e-05  9.6658324273644309e-05 0.0000000000000000e+00  3.8743688837998135e-05  6.4218047686285599e-05 0.0000000000000000e+00  4.2861980032196064e-05  2.4000463609599558e-04 0.0000000000000000e+00  5.7074475279829201e-05  1.4960188557515370e-04 0.0000000000000000e+00  7.1631250534186718e-04  3.6636654383886242e-04 0.0000000000000000e+00  5.5694603962319600e-04  3.2406954981163905e-04 0.0000000000000000e+00  3.5872564976603097e-04  6.2097724186642314e-04 0.0000000000000000e+00  3.9809346310776185e-04  7.3082971239664515e-04 0.0000000000000000e+00  5.7200080105369333e-05  4.2344251042035166e-04 0.0000000000000000e+00  6.8513570215166967e-05  3.6379042687217640e-04 0.0000000000000000e+00  2.2306682278702156e-05  1.6956756876941503e-04 0.0000000000000000e+00  1.7630124312768242e-05  1.0392580815560584e-04 0.0000000000000000e+00  2.8263717150884518e-05  1.4305748077510574e-04 0.0000000000000000e+00  9.2295722010745309e-05  2.3742235299753720e-04 0.0000000000000000e+00  1.1721720341851943e-04  1.8477242404849723e-04 0.0000000000000000e+00  2.1192361692341118e-04  4.8949450952835927e-05 0.0000000000000000e+00  2.0201071198416479e-04  1.1917035118627571e-04 0.0000000000000000e+00  1.4328748471115785e-04  1.9745911675208853e-04 0.0000000000000000e+00  1.3480136489078977e-04  1.0975111382740735e-04 0.0000000000000000e+00  2.5170865596832828e-04  1.5184491197467551e-04 0.0000000000000000e+00  2.2852007731766173e-04  2.3584424474243094e-04 0.0000000000000000e+00  6.6114088983327125e-04  1.7226689404847527e-04 0.0000000000000000e+00  5.4045865871738105e-04  2.0483175786017511e-04 0.0000000000000000e+00  5.0030719625243376e-04  4.9870652987256002e-04 0.0000000000000000e+00  4.6558167014251430e-04  5.1889096352621816e-04 0.0000000000000000e+00  4.0495188891303104e-04  2.7120130132221029e-04 0.0000000000000000e+00  3.1799783029142566e-04  1.9463285659300530e-04 0.0000000000000000e+00  6.1262046572816916e-05  1.8937979286179436e-04 0.0000000000000000e+00  6.1714051272513984e-05  1.2681283185165079e-04 0.0000000000000000e+00  1.3374051953770689e-04  6.4142142050955804e-04 0.0000000000000000e+00  9.6393682749447605e-05  7.9241024771881444e-04 0.0000000000000000e+00  6.6810528565189699e-04  8.2433911683268491e-04 0.0000000000000000e+00  6.3013462120545857e-04  7.3400137100089805e-04 0.0000000000000000e+00  2.1221347682340460e-04  2.4694372825537946e-04 0.0000000000000000e+00  1.8099112913964977e-04  3.0825853821019375e-04 0.0000000000000000e+00  3.9091824219414649e-04  6.9056715479591125e-05 0.0000000000000000e+00  2.5668158106452227e-04  8.2152955952873876e-05 0.0000000000000000e+00  7.3818386181162196e-04  7.0908599821495799e-04 0.0000000000000000e+00  6.9001922187714843e-04  7.1334450199134431e-04 0.0000000000000000e+00  4.0184535747172598e-05  1.0779990814729290e-04 0.0000000000000000e+00  2.9469894937843604e-05  1.2606744150658086e-04 0.0000000000000000e+00  2.2215935458531796e-04  7.6956784223534925e-04 0.0000000000000000e+00  3.1520092156045774e-04  7.7723010909228768e-04 0.0000000000000000e+00  3.6797080961518323e-04  7.1975092806233966e-04 0.0000000000000000e+00  3.1762203953716482e-04  7.5406838563785508e-04 0.0000000000000000e+00  4.6355026484063409e-04  2.3600497166456154e-05 0.0000000000000000e+00  1.5061055779723155e-04  6.0148393300511781e-05 0.0000000000000000e+00  1.5891155167008513e-04  6.0234394617016208e-05 0.0000000000000000e+00  3.8769550855090025e-04  3.3119950482865811e-04 0.0000000000000000e+00  3.7753451839184080e-04  3.7282675072516610e-04 0.0000000000000000e+00  9.0466081619604654e-05  3.2674445674758882e-04 0.0000000000000000e+00  7.4326858759699724e-05  3.2209497565381266e-04 0.0000000000000000e+00  4.1336071055536621e-04  2.1384065984133390e-05 0.0000000000000000e+00  4.1417262616799352e-04  3.1233842399092896e-05 0.0000000000000000e+00  3.5500226402077620e-04  5.0980452369667668e-05 0.0000000000000000e+00  3.4442220787266363e-04  4.9949256425402104e-05 0.0000000000000000e+00  2.0246914860724575e-04  4.8945037078703833e-04 0.0000000000000000e+00  1.8838268353686555e-04  3.7521983398268401e-04 0.0000000000000000e+00  1.6188586260991203e-04  3.7071997421668599e-04 0.0000000000000000e+00  1.8684652450191413e-04  4.1919828532578716e-04 0.0000000000000000e+00  4.0349127197528920e-05  5.0739072502461042e-05 0.0000000000000000e+00  4.0316502376944046e-05  1.1374689418268806e-04 0.0000000000000000e+00  2.8752267207463408e-04  2.6691533590070217e-04 0.0000000000000000e+00  3.2063473872585987e-04  2.7409673972109795e-04 0.0000000000000000e+00  1.4570267490584125e-04  1.5857563509979818e-04 0.0000000000000000e+00  5.7745464372061465e-05  1.8870739546280056e-04 0.0000000000000000e+00  1.5564481101306124e-04  1.9306009979920825e-05 0.0000000000000000e+00  2.2371358266888144e-04  5.4272324239926342e-05 0.0000000000000000e+00  2.2890131542678172e-04  3.7838331787029565e-05 0.0000000000000000e+00  1.8804487619597968e-04  4.7780892082792551e-05 0.0000000000000000e+00  1.3531995534216097e-04  5.9947837322534700e-05 0.0000000000000000e+00  1.8317620689136156e-04  4.5411547590703965e-05 0.0000000000000000e+00  1.5242090583638077e-04  3.0568796525417424e-05 0.0000000000000000e+00  7.4347659352691606e-04  3.9625006233410805e-04 0.0000000000000000e+00  7.4415699393655106e-04  4.6054839932622901e-04 0.0000000000000000e+00  6.8872804315381179e-04  3.8551713964333752e-04 0.0000000000000000e+00  7.1447061275856810e-04  7.1955097208225042e-04 0.0000000000000000e+00  4.5436828851166136e-04  7.9376707633416112e-04 0.0000000000000000e+00  2.8094399044758790e-05  4.7372187663091573e-04 0.0000000000000000e+00  2.8165563021431664e-05  4.8353230060079133e-04 0.0000000000000000e+00  5.8251753577186996e-04  6.5860114392882980e-05 0.0000000000000000e+00  7.2001620386241986e-04  5.4115427616975771e-05 0.0000000000000000e+00  2.9417566366972295e-04  1.7567111235379745e-04 0.0000000000000000e+00  1.7427895245348751e-04  1.3295669788109148e-04 0.0000000000000000e+00  5.8564601487655924e-05  3.3618678978416123e-05 0.0000000000000000e+00  3.7959532333733565e-05  5.2676104641936475e-05 0.0000000000000000e+00  5.8512850564019494e-04  6.0665564569362454e-04 0.0000000000000000e+00  6.6875211498713884e-04  6.1373794686737275e-04 0.0000000000000000e+00  1.3469538198153678e-04  1.0495910500499273e-04 0.0000000000000000e+00  1.9171068353027244e-04  9.4992521531340264e-05 0.0000000000000000e+00  9.7632200581083823e-05  4.4605545912240513e-04 0.0000000000000000e+00  1.1440176957347946e-04  3.2162600738511936e-04 0.0000000000000000e+00  5.6313427579085670e-04  6.9086156061798652e-05 0.0000000000000000e+00  6.3403167187581818e-04  9.4460375383528502e-05 0.0000000000000000e+00  6.4793367655677876e-04  3.5957576712342346e-05 0.0000000000000000e+00  4.8032158210061914e-04  2.8891158625687118e-05 0.0000000000000000e+00  4.0490076455644970e-04  1.4957606586665940e-05 0.0000000000000000e+00  4.2087643042295350e-04  1.9392115228208256e-04 0.0000000000000000e+00  4.7868886257850760e-04  1.0670413412236560e-04 0.0000000000000000e+00  7.2531928728640385e-04  6.2441811492026347e-04 0.0000000000000000e+00  2.4037295080602436e-04  5.8851224675793236e-04 0.0000000000000000e+00  2.2085019929176487e-04  4.5921773528349912e-04 0.0000000000000000e+00  7.0858643524109141e-04  1.3921380371859467e-04 0.0000000000000000e+00  6.4880849017403630e-04  1.6884692828194844e-04 0.0000000000000000e+00  8.5226061021252892e-04  5.1597650109249346e-06 0.0000000000000000e+00  1.9578289670615292e-05  7.4033137413435143e-04 0.0000000000000000e+00  7.2078136224486618e-06  8.4877587519926719e-04 0.0000000000000000e+00  3.9595478696427959e-05  1.6428556768149544e-04 0.0000000000000000e+00  2.2683221227826649e-05  2.4446266864583182e-04 0.0000000000000000e+00  2.3815761219061700e-05  1.7159443653822816e-04 0.0000000000000000e+00  3.0448088711299612e-05  1.3019934553857256e-04 0.0000000000000000e+00  6.8807614184533005e-05  1.9396716762633707e-04 0.0000000000000000e+00  5.8249893785598339e-05  2.8649155341979588e-04 0.0000000000000000e+00  8.1603250461627144e-05  5.4553038460621987e-05 0.0000000000000000e+00  7.2103060005015616e-05  2.1817129467317771e-05 0.0000000000000000e+00  5.0233610114048460e-05  5.3988188956200139e-05 0.0000000000000000e+00  6.7410773315506838e-05  2.9184657141033843e-05 0.0000000000000000e+00  4.2319367173175235e-04  4.1396879950554095e-04 0.0000000000000000e+00  4.8385459057965146e-04  4.0063123693295940e-04 0.0000000000000000e+00  2.6030242865734457e-05  -2.1213632285655641e-06 0.0000000000000000e+00  2.6842335041116271e-05  1.9807597443552374e-06 0.0000000000000000e+00  2.5477272630422625e-05  5.0741679689579543e-05 0.0000000000000000e+00  6.6261983115467268e-04  5.1533022740964010e-04 0.0000000000000000e+00  6.1698300609212570e-04  6.0788386032407330e-04 0.0000000000000000e+00  9.1973111776235723e-05  8.1986011920561676e-05 0.0000000000000000e+00  6.3002258596832442e-05  6.4487759235373811e-05 0.0000000000000000e+00  1.2191253952810982e-04  3.8430009794761420e-05 0.0000000000000000e+00  2.3947241498610254e-04  3.5389722010100371e-05 0.0000000000000000e+00  9.6518550853577501e-05  1.8207035605932097e-04 0.0000000000000000e+00  4.7525989356124095e-05  2.3738641270318702e-04 0.0000000000000000e+00  7.6860464041998911e-05  2.5604407529005818e-04 0.0000000000000000e+00  9.9133576358505248e-05  2.4855942503178026e-04 0.0000000000000000e+00  1.1491589937152131e-04  5.5291501191767904e-04 0.0000000000000000e+00  1.5351369783498457e-04  5.5942121939889754e-04 0.0000000000000000e+00  1.3061614633227221e-04  3.9027350102768246e-04 0.0000000000000000e+00  1.1157512521812164e-04  4.7869036750752575e-04 0.0000000000000000e+00  2.5577742196260955e-04  7.9052733978356464e-04 0.0000000000000000e+00  2.1283991384932386e-04  8.3419667564527458e-04 0.0000000000000000e+00  7.75