<?xml version="1.0"?>
<VTKFile type="UnstructuredGrid"  version="0.1"  >
<UnstructuredGrid>
<Piece  NumberOfPoints="1385" NumberOfCells="2640">
<Points>
<DataArray  type="Float64"  NumberOfComponents="3"  format="ascii">0 0 0  1 0 0  1 1 0  0 1 0  0.5 0 0  1 0.5 0  0.5 1 0  0 0.5 0  0.5 0.5 0  0 0.25 0  0.25 0 0  0.25 1 0  0 0.75 0  1 0.25 0  0.75 0 0  1 0.75 0  0.75 1 0  0.7083333333333333 0.2916666666666667 0  0.2916666666666666 0.7083333333333334 0  0.375 0.25 0  0.75 0.625 0  0.2569444444444444 0.4652777777777778 0  0.5366379310344828 0.7535919540229885 0  0.1875 0.1875 0  0.8125 0.8125 0  0.869047619047619 0.375 0  0.1450441919191919 0.6052714646464646 0  0.375 0.8690476190476191 0  0.5526960784313725 0.1825980392156862 0  0.8385416666666666 0.1614583333333334 0  0.1614583333333333 0.8385416666666667 0  0.6736111111111112 0.4652777777777778 0  0.1367521367521368 0.3477564102564102 0  0.6570970491253563 0.8648656830417855 0  0.5102479397556124 0.3386260301221938 0  0.3654513888888889 0.5737847222222222 0  0.6929750044954185 0.1362784921584263 0  0.388576102743835 0.411911725237599 0  0.6091269841269842 0.5942460317460317 0  0.875 0.6875 0  0.427278890279516 0.119889445139758 0  0.8544456845238095 0.5213913690476191 0  0.125 0 0  0 0.125 0  1 0.875 0  0.875 1 0  0.1280008648150532 0.4769292340226777 0  0.2695382451711197 0.3321750950221553 0  0.7031567235715964 0.7447810921428012 0  0.625 0 0  0.375 0 0  0.125 1 0  0.875 0 0  0 0.375 0  0 0.625 0  1 0.375 0  0.375 1 0  1 0.125 0  0 0.875 0  0.625 1 0  1 0.625 0  0.2979288363930608 0.1201429454643536 0  0.410919540229885 0.7484605911330049 0  0.5325041980395562 0.878905151526474 0  0.4831670727569156 0.6331060043826487 0  0.1735997378973042 0.7204747378973043 0  0.2534919507575758 0.5772372159090909 0  0.2633928571428572 0.8876488095238095 0  0.8199404761904761 0.2730654761904762 0  0.75830270586982 0.3919383189517417 0  0.5750282248382511 0.4237522353023667 0  0.6008360210023379 0.2794828358598495 0  0.08163442644334186 0.6821295860397322 0  0.08333333333333333 0.1875 0  0.2028380815996574 0.08844602719988583 0  0.2766521142611967 0.2325436572164097 0  0.90625 0.78125 0  0.890625 0.890625 0  0.7545696325008384 0.8973565441669461 0  0.5625 0.08086590340834317 0  0.09077380952380953 0.09077380952380952 0  0.4610923478694773 0.209034015149656 0  0.7542527598351648 0.5248380520595106 0  0.6459235536037465 0.3619913988405765 0  0.7560381768882634 0.20506142233852 0  0.07073252688172042 0.8125 0  0.0924753097241701 0.9078102849914793 0  0.9292674731182795 0.1875 0  0.9075246902758297 0.09218971500852073 0  0.8125 0.07073252688172045 0  0.2400955776842301 0.7869705776842302 0  0.9121050213379069 0.2781978201831695 0  0.7916878157143976 0.7239689078571988 0  0.9345238095238094 0.4375 0  0.4375 0.9345238095238095 0  0.3725616989755203 0.6651895248862173 0  0.06536271996350887 0.5625 0  0.9348362560379583 0.5625 0  0.456646798987055 0.8277247094351965 0  0.1875 0.9355758238725954 0  0.6169761231634859 0.6939779188977889 0  0.6226854751147515 0.7827911461419014 0  0.3305695598137626 0.7901697871282585 0  0.5865305325818898 0.5101085479043448 0  0.6622701297028378 0.2177663989757395 0  0.1354166666666667 0.2591702279202279 0  0 0.3125 0  0.2094429575680048 0.3936361846162499 0  0.836666296419157 0.607917407161686 0  0.6875 1 0  0.214261555450504 0.6492551722020035 0  0 0.4375 0  0.07731537126068377 0.40625 0  0.3427725432967068 0.4879566233699599 0  0.3550792513951871 0.3331953632609953 0  0.4462473953896857 0.2887834789342508 0  0.4747801464819794 0.417386052030127 0  0.8229836475148948 0.4443292349237342 0  0.7322605135514757 0.8199240278289671 0  0.6756431877205955 0.5468989748126787 0  0.1968419507215863 0.5194573482612496 0  0.3285590277777778 0.9345238095238095 0  0.8125 1 0  0.4198917601920009 0.5134893045331258 0  0.5232405503206691 0.2595791787880157 0  1 0.9375 0  0.1987510870015086 0.3025185951894431 0  0.5625 1 0  0.6005390654136388 0.9228110509230952 0  0.6411254848194414 0.07704872765442942 0  0.3357233162523242 0.1855113224530532 0  0.6730653396610877 0.6393887462324165 0  0.310966987234063 0.6240019765311626 0  0.7368737836204349 0.07457755202327881 0  0.6192316414418171 0.1485238406378594 0  0.5432429670607106 0.678552703844006 0  0.4754371679695679 0.7103946803120881 0  0.07501324890749672 0.3043839897335739 0  0.5358146975860403 0.5688321463205916 0  0.3115271739500156 0.3982137365971444 0  0.3625191397122174 0.0767854603650549 0  0.5024029442563831 0.1264128223758444 0  0.4375 0 0  0.4699946908887376 0.06379961173775725 0  0.9375 0.71875 0  0.9272105898044465 0.635671179608893 0  0.9375 1 0  0.6690971819568612 0.9331530898202766 0  0.1073454944778885 0.7499206387638554 0  0.8699082999280406 0.2232403652524313 0  0.5773118091863964 0.3548027349159383 0  0.1354166666666667 0.1428571428571428 0  0.3125 0 0  0.8241684193077341 0.9257452995055244 0  0.4352314948354036 0.3586940847489378 0  0.4351301473778832 0.5819726043539077 0  0.8073232928518163 0.3419398170341962 0  0.7775949246947366 0.1298519409204575 0  0.6875 0 0  0.7413513991851041 0.457933324954483 0  0.939453125 0.841796875 0  0.5630355154606987 0.8171875156478349 0  0.9345238095238095 0.3461466592368577 0  0.9375 0 0  1 0.0625 0  0.0625 1 0  0 0.9375 0  0.06552178593177167 0.4969053669623468 0  0.1424866619031703 0.4130277709291224 0  0.1275287182444726 0.5422946908002588 0  0.2637686595586339 0.06413888464529549 0  0.2524263535491086 0.1697437503243817 0  0.7367218397988525 0.6888573970660841 0  0.0625 0 0  0 0.0625 0  0.8463594539285995 0.7578283617857982 0  0.3128751192101563 0.2851997374369947 0  0.4015281788351144 0.1806421385113692 0  0.1910251795116588 0.4553332197174453 0  0.287797471442006 0.5222621440543902 0  0.3962628745986055 0.8097380085535307 0  0.3505895299554843 0.7304878890838692 0  0.5019151500495276 0.9356042615328103 0  0.9374389419410134 0.4999931039076005 0  0.3125 1 0  0.1875 1 0  1 0.5625 0  0.4375 1 0  1 0.3125 0  1 0.4375 0  0.8125 0 0  1 0.1875 0  0.5625 0 0  0.1875 0 0  0 0.1875 0  0 0.5625 0  0 0.6875 0  0 0.8125 0  1 0.6875 0  1 0.8125 0  0.8021696218581627 0.6612893947866073 0  0.06154922295426143 0.6239401126946708 0  0.9359375 0.9359375 0  0.4666158024849896 0.7691515918155014 0  0.2318201265217025 0.7064974250277525 0  0.1565954253579966 0.6635489312486841 0  0.1598132503680848 0.7787147500325552 0  0.3146529991605639 0.8510876378205265 0  0.1461873209418733 0.05982804528877814 0  0.06109554988524315 0.2446551776247686 0  0.8054950308560754 0.5564226538848541 0  0.470541749491976 0.8853316336952531 0  0.6948472567465137 0.4042308563372457 0  0.8802828472348889 0.4658893256343853 0  0.6788075634946739 0.7974194205806069 0  0.2155048659603867 0.2428201584940968 0  0.8131223143423806 0.2132171049028394 0  0.4330798005432235 0.6671274900735726 0  0.6015279126162613 0.2187368078743274 0  0.8061636571464289 0.8703766630361714 0  0.7008230445061776 0.3478568388444072 0  0.8638466246958771 0.3147095987735538 0  0.204801534004265 0.8789209409594009 0  0.2449006736431132 0.9424182882803838 0  0.7611268409371427 0.2643056884799992 0  0.7552800864046191 0.7678006649959446 0  0.5983639638906616 0.864113435029236 0  0.1956559506814437 0.577281203577426 0  0.3527670268164207 0.1320469097565204 0  0.7530364577483248 0.3262386077083089 0  0.4535919187979363 0.4690107087451527 0  0.8824869791666666 0.8336588541666666 0  0.8814453125 0.9451171875 0  0.5582987942628019 0.622421666543858 0  0.6817532446064828 0.6939001801354731 0  0.3830295138888889 0.9450968952922078 0  0.4140603937012541 0.05211333372716105 0  0.5535864501303013 0.3060591985391672 0  0.6560130086346878 0.2729726562211558 0  0.890203140221684 0.5948314305427268 0  0.7043857725999024 0.593980890020804 0  0.5105843922695152 0.8016828014338627 0  0.05365910753708378 0.7315110031682004 0  0.616904573672261 0.4621186633436136 0  0.5338511646455415 0.387875898899613 0  0.5231769258947843 0.4477682463140762 0  0.650302973237622 0.7370722302085519 0  0.3927483139621257 0.4662414504529014 0  0.8034595960585199 0.4972538342758211 0  0.7738337841682438 0.9496376207663251 0  0.7193737507158268 0.954685447650112 0  0.482525916480686 0.5528257169991676 0  0.2533501157346781 0.2809495420003238 0  0.3118487924482243 0.5702930126570319 0  0.6257598847669529 0.4104163315430518 0  0.1354166666666667 0.1955605158730158 0  0.04166666666666666 0.15625 0  0.3956448985530264 0.6174149462065157 0  0.8102897701818546 0.3938784238208349 0  0.2641154190013625 0.8344469561943118 0  0.642852220770013 0.5068794586563659 0  0.05271458179508221 0.355846947336007 0  0.7021551360070266 0.8921457280225779 0  0.5692125776683765 0.1328512638850284 0  0.5206162811937602 0.04865158770992991 0  0.6001838442201555 0.04540556991297563 0  0.2597716608242787 0.4118346398477178 0  0.4040584599473195 0.3179589136784675 0  0.1480337679295207 0.8941560631483065 0  0.1344356707112281 0.9466251177415842 0  0.7114696411829317 0.4983917389078826 0  0.7585704698442475 0.5751926345944629 0  0.2189131956390871 0.04022068508159698 0  0.2476935455192043 0.1123642267635843 0  0.185995005654517 0.1365524537205238 0  0.6223414373308711 0.643380839165121 0  0.5732602596637543 0.7190051747306219 0  0.268358222364537 0.6586246524467934 0  0.3265879848129173 0.2369791782191225 0  0.1267095595787346 0.7034787238999181 0  0.1115202922226038 0.6421997933884982 0  0.3128688392940203 0.07260997451790079 0  0.550724900485678 0.9253360991633187 0  0.7142608810459105 0.2384904702214873 0  0.7045869185243887 0.1871826897887429 0  0.890625 0.734375 0  0.953125 0.765625 0  0.2111812642821677 0.8286209446459138 0  0.9590293078204457 0.09375 0  0.953431269039847 0.1435719386408004 0  0.04097069217955424 0.90625 0  0.04656873096015299 0.8564280613591996 0  0.1078743037981226 0.8541621766048062 0  0.8921256962018773 0.1458378233951939 0  0.8521576979194619 0.1084496634207678 0  0.8655663982740958 0.05464346096571447 0  0.04005659640905543 0.09375 0  0.1001448316533417 0.04246776244228261 
[...]
<CellData  Vectors="f_8394-1"> 
<DataArray  type="Float64"  Name="f_8394-1"  NumberOfComponents="3" format="ascii">1.4798158759636180e-04  1.2457310764635830e-04 0.0000000000000000e+00  3.5674469460701810e-05  5.9894347485723660e-05 0.0000000000000000e+00  4.6190725612666174e-05  5.5266504361980670e-05 0.0000000000000000e+00  2.1673152938967589e-05  2.6353876546305927e-05 0.0000000000000000e+00  6.7012056765395107e-05  1.2886006922918804e-04 0.0000000000000000e+00  5.3910936366457479e-05  4.6840856167409428e-05 0.0000000000000000e+00  3.5472768188830271e-05  4.0029181701142449e-04 0.0000000000000000e+00  3.1249014145805653e-05  5.7167453337356221e-04 0.0000000000000000e+00  4.8894551292677458e-04  2.0538572466117904e-05 0.0000000000000000e+00  2.2122181955974921e-04  1.0021452809987983e-05 0.0000000000000000e+00  9.1172210273429759e-05  3.5783861867339933e-05 0.0000000000000000e+00  3.4775140645672688e-04  4.1635087651679579e-04 0.0000000000000000e+00  2.7411522212090952e-04  5.1348334769233978e-04 0.0000000000000000e+00  4.0345593618941559e-04  2.9430473298567455e-04 0.0000000000000000e+00  5.0414126529400849e-04  2.3453597924403882e-04 0.0000000000000000e+00  4.3064389077704298e-04  1.5833489035614013e-04 0.0000000000000000e+00  2.9652375362268485e-04  3.2948383303977875e-04 0.0000000000000000e+00  1.3133832401476234e-04  1.4863115449258407e-04 0.0000000000000000e+00  7.1139072478940531e-05  3.5891116704995114e-04 0.0000000000000000e+00  2.0618623008961074e-04  6.6464478828146464e-05 0.0000000000000000e+00  2.2022691235984540e-04  4.1223682543262511e-05 0.0000000000000000e+00  3.9792558058935858e-04  1.4817574822270928e-04 0.0000000000000000e+00  4.3782997391514985e-04  1.4008076930944395e-04 0.0000000000000000e+00  5.4505251187728313e-05  3.9380788099036571e-04 0.0000000000000000e+00  7.4354728516643387e-05  1.9207600676300491e-04 0.0000000000000000e+00  9.3637040916942602e-05  4.6191259384821266e-04 0.0000000000000000e+00  7.3137794088221497e-06  4.1876664239931122e-05 0.0000000000000000e+00  3.5644163451759633e-04  3.8122474305676534e-05 0.0000000000000000e+00  3.1562634978530558e-05  5.6096199391481353e-04 0.0000000000000000e+00  2.1062674316959804e-04  2.2375515382973869e-05 0.0000000000000000e+00  4.8070923230052258e-04  6.8213644415663523e-05 0.0000000000000000e+00  1.9238311501697215e-04  2.6877808490168042e-04 0.0000000000000000e+00  2.0178837793564369e-04  1.0047304206789890e-04 0.0000000000000000e+00  2.9352844481488955e-04  4.6729795178762369e-04 0.0000000000000000e+00  9.9208165448117151e-05  3.6841431415586898e-05 0.0000000000000000e+00  1.2527438655240031e-04  7.4911658097810284e-05 0.0000000000000000e+00  1.4540653441276965e-04  1.9961082897601603e-04 0.0000000000000000e+00  7.5550985318569662e-05  4.1143707645460595e-04 0.0000000000000000e+00  3.0937340553940999e-04  2.9997142053742542e-05 0.0000000000000000e+00  1.2771811394323039e-04  1.2308220374986976e-04 0.0000000000000000e+00  1.2325005463169146e-04  1.1668084096106911e-04 0.0000000000000000e+00  2.1488261242648022e-04  1.2485270630119538e-04 0.0000000000000000e+00  4.6247536996726657e-04  2.1339411008517307e-04 0.0000000000000000e+00  5.0547382996615341e-04  2.2364226755495684e-04 0.0000000000000000e+00  7.5843848569949061e-05  1.6903607404515002e-05 0.0000000000000000e+00  5.9939989614709883e-04  2.9511826236310474e-04 0.0000000000000000e+00  4.2705566995171994e-04  2.1407188259567157e-04 0.0000000000000000e+00  4.5433615583009727e-05  3.8006302267091377e-05 0.0000000000000000e+00  5.8272791334391906e-04  4.3413194460653891e-04 0.0000000000000000e+00  5.5601402943511360e-04  3.4671505351317359e-04 0.0000000000000000e+00  4.8104990707063886e-04  4.5514420697988206e-04 0.0000000000000000e+00  5.3566334807914528e-04  5.1429699690032100e-04 0.0000000000000000e+00  6.4556629282996110e-05  2.2180429684692690e-04 0.0000000000000000e+00  1.2015637813800269e-04  6.9308348941406607e-05 0.0000000000000000e+00  6.4338063604073376e-05  1.2661493568016130e-04 0.0000000000000000e+00  3.6243220853587985e-04  3.6573938988708791e-04 0.0000000000000000e+00  2.8744295310154550e-04  2.6181335839354852e-04 0.0000000000000000e+00  2.7171587753161937e-04  5.2247488003802308e-05 0.0000000000000000e+00  1.0762483122810383e-04  2.3542225643117871e-05 0.0000000000000000e+00  2.6475737928620447e-05  5.0859221268994875e-04 0.0000000000000000e+00  2.7954428970075550e-05  4.9602008017681626e-04 0.0000000000000000e+00  4.5381641827574548e-04  3.6023369415733589e-05 0.0000000000000000e+00  3.0074914029927003e-05  1.0039466278204988e-04 0.0000000000000000e+00  3.2736591266179653e-05  2.3554302989457749e-04 0.0000000000000000e+00  4.2135901869527832e-05  2.5540291462904856e-04 0.0000000000000000e+00  4.2072447866912743e-04  8.4909224718505180e-05 0.0000000000000000e+00  5.9296593483427431e-05  3.8488088127422790e-04 0.0000000000000000e+00  5.3055398593416213e-04  1.9978047807533086e-05 0.0000000000000000e+00  2.6710995049546937e-05  5.5692598499243267e-04 0.0000000000000000e+00  1.8717150918872436e-04  5.9490561323927670e-04 0.0000000000000000e+00  2.0328751756742056e-04  5.5035017194244727e-04 0.0000000000000000e+00  4.8495215306033917e-04  2.7429891006991745e-04 0.0000000000000000e+00  5.9225364508975131e-05  7.1889722004180959e-05 0.0000000000000000e+00  1.4190095042393607e-04  2.2645386533158663e-04 0.0000000000000000e+00  2.3878140662667995e-04  3.2635208109550593e-04 0.0000000000000000e+00  1.3368802533738608e-04  4.4201485697943925e-04 0.0000000000000000e+00  1.9437619967555033e-04  4.4636284966710540e-04 0.0000000000000000e+00  1.8805338393424164e-04  3.0421489455649748e-04 0.0000000000000000e+00  1.4638175999967518e-04  3.8244836964063480e-04 0.0000000000000000e+00  2.6207374194305270e-05  2.9858466039365541e-04 0.0000000000000000e+00  2.4494528925658788e-05  2.3580033169203149e-04 0.0000000000000000e+00  2.6163299124376673e-05  2.1152642724180191e-04 0.0000000000000000e+00  6.1323364838985407e-05  1.8100600476127912e-04 0.0000000000000000e+00  4.2618344920606878e-05  5.7929572452622956e-04 0.0000000000000000e+00  5.0399738661088768e-04  6.5373521962594294e-05 0.0000000000000000e+00  3.2731977458665194e-04  4.3058357407744093e-05 0.0000000000000000e+00  3.1318008448305204e-04  1.0998419895025706e-04 0.0000000000000000e+00  4.7850743230807164e-04  9.1181528304791197e-05 0.0000000000000000e+00  3.0908123212973731e-04  1.5980159694620622e-04 0.0000000000000000e+00  1.9270287346054077e-04  1.3713887666667922e-04 0.0000000000000000e+00  2.7228495386120587e-04  4.1017045025662768e-05 0.0000000000000000e+00  2.4920841988246387e-04  7.5966074977647799e-05 0.0000000000000000e+00  2.3559191508209169e-05  3.7143553263519776e-05 0.0000000000000000e+00  2.8934658725644596e-05  6.8496000480531087e-06 0.0000000000000000e+00  5.2069693695621920e-05  5.3796603787384766e-05 0.0000000000000000e+00  7.8997238044713989e-05  4.9933046238790199e-05 0.0000000000000000e+00  1.0139158300117107e-04  3.1600901723941869e-05 0.0000000000000000e+00  3.6961209858148744e-04  5.9091361096728120e-04 0.0000000000000000e+00  3.5958215734078119e-04  5.4228343445657549e-04 0.0000000000000000e+00  1.7165890245118555e-04  5.2184143213812798e-05 0.0000000000000000e+00  1.3864245562924881e-04  4.1789215640802018e-05 0.0000000000000000e+00  1.5219231602205623e-04  7.5909783460677811e-05 0.0000000000000000e+00  1.4858181771439116e-04  5.1276331772571955e-05 0.0000000000000000e+00  3.0248110860627426e-04  2.3601283110994271e-04 0.0000000000000000e+00  2.9421616369648917e-04  1.9876773264842771e-04 0.0000000000000000e+00  3.8708062387765113e-04  1.0276982196891187e-04 0.0000000000000000e+00  3.0238872242082960e-04  1.3942081878075052e-04 0.0000000000000000e+00  3.3424828817022107e-04  5.3213049683671680e-05 0.0000000000000000e+00  2.8310590290887085e-04  3.0438050806835859e-05 0.0000000000000000e+00  2.0856604958558601e-05  4.8134277551516782e-04 0.0000000000000000e+00  3.0238159181229851e-05  4.8729680814681750e-04 0.0000000000000000e+00  5.5817695919932258e-04  1.9970017793023497e-05 0.0000000000000000e+00  5.3609536197177319e-04  4.3293725463756837e-05 0.0000000000000000e+00  4.1452140642181281e-04  2.1150410961125955e-05 0.0000000000000000e+00  3.9915459497560284e-04  1.1741432216579489e-05 0.0000000000000000e+00  3.8533006229062078e-05  3.9974734464194930e-04 0.0000000000000000e+00  6.9516195962163695e-05  2.9520625568343081e-04 0.0000000000000000e+00  5.5172112803362843e-04  6.3871610046951864e-05 0.0000000000000000e+00  4.5472615759854996e-04  2.9987555323242771e-04 0.0000000000000000e+00  3.8971422051284078e-04  3.4771365123945720e-04 0.0000000000000000e+00  1.6921175053954721e-04  4.7654862798543154e-04 0.0000000000000000e+00  1.6613666777908598e-04  5.5596201216867429e-04 0.0000000000000000e+00  5.7678302515267874e-05  2.1319737399875654e-04 0.0000000000000000e+00  1.0200372599212435e-04  2.5570319337110833e-04 0.0000000000000000e+00  2.4810859554499153e-05  1.9638443519776964e-04 0.0000000000000000e+00  4.1160628878099016e-05  2.0365746021774864e-04 0.0000000000000000e+00  5.1476464203431148e-04  1.6548119121427207e-04 0.0000000000000000e+00  5.5314922206641188e-04  2.0197415963749553e-04 0.0000000000000000e+00  1.3730598606947973e-04  5.2080201601171670e-04 0.0000000000000000e+00  1.3865938370900843e-04  3.0293584276042194e-04 0.0000000000000000e+00  2.1339891668198973e-04  2.3944635244767362e-04 0.0000000000000000e+00  2.4399517032941490e-04  2.2155823898273774e-04 0.0000000000000000e+00  2.2579476906747154e-04  4.7408477952451877e-04 0.0000000000000000e+00  2.0225421878765145e-04  4.6333175218139333e-04 0.0000000000000000e+00  1.0483758834227485e-04  4.6808084144567627e-04 0.0000000000000000e+00  1.2577882962278014e-04  5.2146829029876948e-04 0.0000000000000000e+00  2.7407634997118099e-04  2.5510225303779390e-04 0.0000000000000000e+00  1.7972548044603427e-04  2.7403051573422998e-04 0.0000000000000000e+00  3.1071934831602667e-04  4.3548595399076651e-05 0.0000000000000000e+00  3.3834582845661379e-04  5.8051749515587409e-05 0.0000000000000000e+00  3.5316295380372619e-05  5.4695317803913737e-05 0.0000000000000000e+00  3.2028930669061936e-05  3.2052827980915313e-05 0.0000000000000000e+00  2.0378876111684123e-05  7.3686078930743844e-05 0.0000000000000000e+00  3.8575206372680984e-05  4.7286006563395709e-05 0.0000000000000000e+00  3.8567102612021472e-05  1.8592431104428754e-04 0.0000000000000000e+00  4.7910181983059658e-05  1.1646248590436488e-04 0.0000000000000000e+00  5.4833362815768182e-04  2.8015920614744155e-04 0.0000000000000000e+00  4.2711537962930319e-04  2.4813801954529498e-04 0.0000000000000000e+00  2.7440951373497425e-04  4.7544046755095486e-04 0.0000000000000000e+00  3.0430572404861110e-04  5.5912311232767572e-04 0.0000000000000000e+00  4.5389509838801516e-05  3.2805339141765504e-04 0.0000000000000000e+00  5.8962331529297141e-05  2.8157906313724891e-04 0.0000000000000000e+00  2.2237544935993378e-05  1.2705838092966272e-04 0.0000000000000000e+00  1.7031664239981452e-05  7.9764167939991141e-05 0.0000000000000000e+00  2.5150183039220528e-05  1.1161679602872766e-04 0.0000000000000000e+00  7.3718114323765869e-05  1.8243110615288917e-04 0.0000000000000000e+00  9.3350063554159337e-05  1.4506576129480687e-04 0.0000000000000000e+00  1.6348118784449269e-04  3.8415652243289541e-05 0.0000000000000000e+00  1.6025476541089745e-04  9.6861537610157787e-05 0.0000000000000000e+00  1.1526930136183723e-04  1.5643971145328761e-04 0.0000000000000000e+00  1.0481075907730417e-04  8.9113163103222957e-05 0.0000000000000000e+00  1.9573463720495406e-04  1.1872336433176218e-04 0.0000000000000000e+00  1.7651945298259865e-04  1.8281849479904205e-04 0.0000000000000000e+00  5.0868024991885944e-04  1.3174381396292717e-04 0.0000000000000000e+00  4.1631441597889037e-04  1.5819729677329564e-04 0.0000000000000000e+00  3.8225298644825806e-04  3.8127292964670612e-04 0.0000000000000000e+00  3.5607825255019263e-04  3.9648641486094203e-04 0.0000000000000000e+00  3.1097028605286850e-04  2.0839332085273869e-04 0.0000000000000000e+00  2.4598683468106451e-04  1.5147543915253501e-04 0.0000000000000000e+00  5.7467072228564577e-05  1.4838124681930599e-04 0.0000000000000000e+00  5.1991487224832383e-05  9.8734178155624171e-05 0.0000000000000000e+00  1.0377128233661354e-04  4.9318993331879226e-04 0.0000000000000000e+00  7.4281653988749402e-05  6.0895736601217470e-04 0.0000000000000000e+00  5.0998317436887805e-04  6.2787207876511012e-04 0.0000000000000000e+00  4.8061098606484861e-04  5.5958852145040041e-04 0.0000000000000000e+00  1.6379446819499033e-04  1.8949362214784580e-04 0.0000000000000000e+00  1.3839189178140059e-04  2.3902586237389370e-04 0.0000000000000000e+00  3.0005968857962668e-04  5.5096274966952692e-05 0.0000000000000000e+00  2.0237224144603987e-04  6.7662813337671603e-05 0.0000000000000000e+00  5.6328338787631877e-04  5.4026288139112535e-04 0.0000000000000000e+00  5.2584184892117715e-04  5.4482905391591290e-04 0.0000000000000000e+00  3.3407343699262607e-05  8.5783131816281172e-05 0.0000000000000000e+00  2.5591947334642656e-05  9.9746763953191374e-05 0.0000000000000000e+00  1.7003005687973974e-04  5.8967364869577025e-04 0.0000000000000000e+00  2.4109626842571714e-04  5.9487925348930884e-04 0.0000000000000000e+00  2.8143381030507742e-04  5.5081799446731090e-04 0.0000000000000000e+00  2.4295287784427684e-04  5.7726165472677684e-04 0.0000000000000000e+00  3.5625472914971247e-04  2.0618012357250383e-05 0.0000000000000000e+00  1.2161389050922394e-04  5.3965718209481412e-05 0.0000000000000000e+00  1.2866779376330113e-04  5.5192959942118853e-05 0.0000000000000000e+00  2.9751254295064603e-04  2.5360232218600613e-04 0.0000000000000000e+00  2.8839896264246502e-04  2.8573685472091278e-04 0.0000000000000000e+00  7.4005077357319993e-05  2.4994384093131745e-04 0.0000000000000000e+00  6.0258619230842043e-05  2.4559734049581531e-04 0.0000000000000000e+00  3.1530636045141536e-04  2.1183336062323410e-05 0.0000000000000000e+00  3.1560230653647123e-04  2.9660763795025051e-05 0.0000000000000000e+00  2.7529394953674710e-04  4.8188706241131840e-05 0.0000000000000000e+00  2.6330251302881120e-04  4.3474681645875592e-05 0.0000000000000000e+00  1.5649020665394988e-04  3.7631370513442787e-04 0.0000000000000000e+00  1.4416765549924237e-04  2.9035254668244461e-04 0.0000000000000000e+00  1.2584193507476601e-04  2.8672515551587811e-04 0.0000000000000000e+00  1.4335073989233546e-04  3.2378562300378077e-04 0.0000000000000000e+00  3.9249651118277482e-05  4.0799757084752576e-05 0.0000000000000000e+00  3.6023842720001262e-05  8.9433503735089308e-05 0.0000000000000000e+00  2.2001457684602346e-04  2.0743158318865901e-04 0.0000000000000000e+00  2.4701234341912534e-04  2.1341269633345374e-04 0.0000000000000000e+00  1.1592132574793593e-04  1.2211216757411687e-04 0.0000000000000000e+00  4.4104953121274163e-05  1.4814317905890068e-04 0.0000000000000000e+00  1.1815465681815525e-04  1.9016891261067660e-05 0.0000000000000000e+00  1.7635481216901605e-04  5.2365502374746110e-05 0.0000000000000000e+00  1.8286487457644664e-04  3.5130483684413726e-05 0.0000000000000000e+00  1.4620525654946188e-04  4.6697596062216143e-05 0.0000000000000000e+00  1.0811422561591399e-04  5.8405305658307090e-05 0.0000000000000000e+00  1.4238694761968453e-04  4.5056294889246496e-05 0.0000000000000000e+00  1.1686050209575540e-04  3.0542094968041318e-05 0.0000000000000000e+00  5.6898680910912871e-04  3.0303532963133964e-04 0.0000000000000000e+00  5.6904220515267920e-04  3.5168920589057556e-04 0.0000000000000000e+00  5.2703011658886145e-04  2.9468959524617499e-04 0.0000000000000000e+00  5.4424482902797923e-04  5.4860708960212238e-04 0.0000000000000000e+00  3.4729396333485301e-04  6.0676070344255564e-04 0.0000000000000000e+00  2.6759338896594895e-05  3.6528278196987208e-04 0.0000000000000000e+00  2.6755369638138149e-05  3.6698645397910347e-04 0.0000000000000000e+00  4.4573876450339011e-04  5.3303523518407845e-05 0.0000000000000000e+00  5.5463137370904080e-04  4.1292316497491942e-05 0.0000000000000000e+00  2.2879565933150623e-04  1.3696465036943070e-04 0.0000000000000000e+00  1.3585535735024116e-04  1.0493952081088024e-04 0.0000000000000000e+00  5.3257162523379231e-05  3.1285938256676857e-05 0.0000000000000000e+00  3.7566187139195727e-05  4.4931599964182699e-05 0.0000000000000000e+00  4.4678813777999644e-04  4.6337493479631719e-04 0.0000000000000000e+00  5.0982203977527818e-04  4.6807307258942536e-04 0.0000000000000000e+00  1.0427540708468828e-04  8.6090647338591121e-05 0.0000000000000000e+00  1.5549946942585905e-04  7.8427540522859395e-05 0.0000000000000000e+00  7.3224772159997010e-05  3.4390018100418767e-04 0.0000000000000000e+00  8.7813947075936373e-05  2.5063200193830074e-04 0.0000000000000000e+00  4.3464820309002363e-04  5.5231598552129498e-05 0.0000000000000000e+00  4.8774350661221611e-04  7.2383149539382208e-05 0.0000000000000000e+00  4.9996572007251431e-04  3.0608944278832883e-05 0.0000000000000000e+00  3.6932674461685652e-04  2.1570273726540337e-05 0.0000000000000000e+00  3.1120774251198200e-04  1.4907474623362418e-05 0.0000000000000000e+00  3.2149303781218704e-04  1.5079394300906120e-04 0.0000000000000000e+00  3.6810464895114397e-04  8.2770920236675499e-05 0.0000000000000000e+00  5.5375500472408610e-04  4.7630688859573065e-04 0.0000000000000000e+00  1.8475506039225171e-04  4.5142337223606354e-04 0.0000000000000000e+00  1.7127554360156036e-04  3.5419225956445747e-04 0.0000000000000000e+00  5.4377388819906833e-04  1.0661678200841345e-04 0.0000000000000000e+00  5.0005600245338409e-04  1.3154119144544274e-04 0.0000000000000000e+00  6.5636607400180254e-04  4.6813237249705969e-06 0.0000000000000000e+00  1.9230341353694003e-05  5.6945168285097423e-04 0.0000000000000000e+00  5.9648428809606266e-06  6.5138543669738353e-04 0.0000000000000000e+00  3.9169117251185476e-05  1.3034268265519792e-04 0.0000000000000000e+00  2.1989516277041716e-05  1.9102067197230313e-04 0.0000000000000000e+00  2.3527806614687437e-05  1.2712670771541687e-04 0.0000000000000000e+00  2.8401818563010957e-05  1.0197349886622911e-04 0.0000000000000000e+00  6.0354049086966017e-05  1.4658073858145307e-04 0.0000000000000000e+00  4.9130400487186470e-05  2.2436662291607342e-04 0.0000000000000000e+00  6.3963466558975276e-05  5.4508022663493336e-05 0.0000000000000000e+00  5.3908894303779678e-05  2.1503207585347319e-05 0.0000000000000000e+00  4.0677338249605859e-05  5.0405132963005883e-05 0.0000000000000000e+00  5.3021231361585292e-05  2.3943444714806007e-05 0.0000000000000000e+00  3.2449722503429559e-04  3.1647135865827634e-04 0.0000000000000000e+00  3.7012302867329711e-04  3.0675812923506153e-04 0.0000000000000000e+00  2.5921694533537823e-05  -2.9144354867904763e-06 0.0000000000000000e+00  2.6797209467419536e-05  7.7659787268760749e-07 0.0000000000000000e+00  2.4696086509079582e-05  5.0312813403127102e-05 0.0000000000000000e+00  5.0601684703261373e-04  3.9324519735635773e-04 0.0000000000000000e+00  4.7081698354880662e-04  4.6356526115590922e-04 0.0000000000000000e+00  7.5028003579351849e-05  6.6095436262593823e-05 0.0000000000000000e+00  4.9576658906151877e-05  5.2851539265277757e-05 0.0000000000000000e+00  9.6503221151305731e-05  3.4660222320728874e-05 0.0000000000000000e+00  1.8704993099918121e-04  3.0006711466041650e-05 0.0000000000000000e+00  7.6288203214366367e-05  1.4302657375577738e-04 0.0000000000000000e+00  3.7166157902352085e-05  1.8191730992980060e-04 0.0000000000000000e+00  6.5227842279085282e-05  1.9908370384308038e-04 0.0000000000000000e+00  7.8311605593534646e-05  1.9271890176736283e-04 0.0000000000000000e+00  9.0920015854452154e-05  4.2461795075289933e-04 0.0000000000000000e+00  1.1868299478498172e-04  4.2989783388634902e-04 0.0000000000000000e+00  1.0150502405993301e-04  2.9892146317400670e-04 0.0000000000000000e+00  8.7927619156265538e-05  3.6740089038597636e-04 0.0000000000000000e+00  1.9560658798675485e-04  6.0532025600599051e-04 0.0000000000000000e+00  1.6285926159599753e-04  6.3856487629344676e-04 0.0000000000000000e+00  5.95