<?xml version="1.0"?>
<VTKFile type="UnstructuredGrid"  version="0.1"  >
<UnstructuredGrid>
<Piece  NumberOfPoints="1385" NumberOfCells="2640">
<Points>
<DataArray  type="Float64"  NumberOfComponents="3"  format="ascii">0 0 0  1 0 0  1 1 0  0 1 0  0.5 0 0  1 0.5 0  0.5 1 0  0 0.5 0  0.5 0.5 0  0 0.25 0  0.25 0 0  0.25 1 0  0 0.75 0  1 0.25 0  0.75 0 0  1 0.75 0  0.75 1 0  0.7083333333333333 0.2916666666666667 0  0.2916666666666666 0.7083333333333334 0  0.375 0.25 0  0.75 0.625 0  0.2569444444444444 0.4652777777777778 0  0.5366379310344828 0.7535919540229885 0  0.1875 0.1875 0  0.8125 0.8125 0  0.869047619047619 0.375 0  0.1450441919191919 0.6052714646464646 0  0.375 0.8690476190476191 0  0.5526960784313725 0.1825980392156862 0  0.8385416666666666 0.1614583333333334 0  0.1614583333333333 0.8385416666666667 0  0.6736111111111112 0.4652777777777778 0  0.1367521367521368 0.3477564102564102 0  0.6570970491253563 0.8648656830417855 0  0.5102479397556124 0.3386260301221938 0  0.3654513888888889 0.5737847222222222 0  0.6929750044954185 0.1362784921584263 0  0.388576102743835 0.411911725237599 0  0.6091269841269842 0.5942460317460317 0  0.875 0.6875 0  0.427278890279516 0.119889445139758 0  0.8544456845238095 0.5213913690476191 0  0.125 0 0  0 0.125 0  1 0.875 0  0.875 1 0  0.1280008648150532 0.4769292340226777 0  0.2695382451711197 0.3321750950221553 0  0.7031567235715964 0.7447810921428012 0  0.625 0 0  0.375 0 0  0.125 1 0  0.875 0 0  0 0.375 0  0 0.625 0  1 0.375 0  0.375 1 0  1 0.125 0  0 0.875 0  0.625 1 0  1 0.625 0  0.2979288363930608 0.1201429454643536 0  0.410919540229885 0.7484605911330049 0  0.5325041980395562 0.878905151526474 0  0.4831670727569156 0.6331060043826487 0  0.1735997378973042 0.7204747378973043 0  0.2534919507575758 0.5772372159090909 0  0.2633928571428572 0.8876488095238095 0  0.8199404761904761 0.2730654761904762 0  0.75830270586982 0.3919383189517417 0  0.5750282248382511 0.4237522353023667 0  0.6008360210023379 0.2794828358598495 0  0.08163442644334186 0.6821295860397322 0  0.08333333333333333 0.1875 0  0.2028380815996574 0.08844602719988583 0  0.2766521142611967 0.2325436572164097 0  0.90625 0.78125 0  0.890625 0.890625 0  0.7545696325008384 0.8973565441669461 0  0.5625 0.08086590340834317 0  0.09077380952380953 0.09077380952380952 0  0.4610923478694773 0.209034015149656 0  0.7542527598351648 0.5248380520595106 0  0.6459235536037465 0.3619913988405765 0  0.7560381768882634 0.20506142233852 0  0.07073252688172042 0.8125 0  0.0924753097241701 0.9078102849914793 0  0.9292674731182795 0.1875 0  0.9075246902758297 0.09218971500852073 0  0.8125 0.07073252688172045 0  0.2400955776842301 0.7869705776842302 0  0.9121050213379069 0.2781978201831695 0  0.7916878157143976 0.7239689078571988 0  0.9345238095238094 0.4375 0  0.4375 0.9345238095238095 0  0.3725616989755203 0.6651895248862173 0  0.06536271996350887 0.5625 0  0.9348362560379583 0.5625 0  0.456646798987055 0.8277247094351965 0  0.1875 0.9355758238725954 0  0.6169761231634859 0.6939779188977889 0  0.6226854751147515 0.7827911461419014 0  0.3305695598137626 0.7901697871282585 0  0.5865305325818898 0.5101085479043448 0  0.6622701297028378 0.2177663989757395 0  0.1354166666666667 0.2591702279202279 0  0 0.3125 0  0.2094429575680048 0.3936361846162499 0  0.836666296419157 0.607917407161686 0  0.6875 1 0  0.214261555450504 0.6492551722020035 0  0 0.4375 0  0.07731537126068377 0.40625 0  0.3427725432967068 0.4879566233699599 0  0.3550792513951871 0.3331953632609953 0  0.4462473953896857 0.2887834789342508 0  0.4747801464819794 0.417386052030127 0  0.8229836475148948 0.4443292349237342 0  0.7322605135514757 0.8199240278289671 0  0.6756431877205955 0.5468989748126787 0  0.1968419507215863 0.5194573482612496 0  0.3285590277777778 0.9345238095238095 0  0.8125 1 0  0.4198917601920009 0.5134893045331258 0  0.5232405503206691 0.2595791787880157 0  1 0.9375 0  0.1987510870015086 0.3025185951894431 0  0.5625 1 0  0.6005390654136388 0.9228110509230952 0  0.6411254848194414 0.07704872765442942 0  0.3357233162523242 0.1855113224530532 0  0.6730653396610877 0.6393887462324165 0  0.310966987234063 0.6240019765311626 0  0.7368737836204349 0.07457755202327881 0  0.6192316414418171 0.1485238406378594 0  0.5432429670607106 0.678552703844006 0  0.4754371679695679 0.7103946803120881 0  0.07501324890749672 0.3043839897335739 0  0.5358146975860403 0.5688321463205916 0  0.3115271739500156 0.3982137365971444 0  0.3625191397122174 0.0767854603650549 0  0.5024029442563831 0.1264128223758444 0  0.4375 0 0  0.4699946908887376 0.06379961173775725 0  0.9375 0.71875 0  0.9272105898044465 0.635671179608893 0  0.9375 1 0  0.6690971819568612 0.9331530898202766 0  0.1073454944778885 0.7499206387638554 0  0.8699082999280406 0.2232403652524313 0  0.5773118091863964 0.3548027349159383 0  0.1354166666666667 0.1428571428571428 0  0.3125 0 0  0.8241684193077341 0.9257452995055244 0  0.4352314948354036 0.3586940847489378 0  0.4351301473778832 0.5819726043539077 0  0.8073232928518163 0.3419398170341962 0  0.7775949246947366 0.1298519409204575 0  0.6875 0 0  0.7413513991851041 0.457933324954483 0  0.939453125 0.841796875 0  0.5630355154606987 0.8171875156478349 0  0.9345238095238095 0.3461466592368577 0  0.9375 0 0  1 0.0625 0  0.0625 1 0  0 0.9375 0  0.06552178593177167 0.4969053669623468 0  0.1424866619031703 0.4130277709291224 0  0.1275287182444726 0.5422946908002588 0  0.2637686595586339 0.06413888464529549 0  0.2524263535491086 0.1697437503243817 0  0.7367218397988525 0.6888573970660841 0  0.0625 0 0  0 0.0625 0  0.8463594539285995 0.7578283617857982 0  0.3128751192101563 0.2851997374369947 0  0.4015281788351144 0.1806421385113692 0  0.1910251795116588 0.4553332197174453 0  0.287797471442006 0.5222621440543902 0  0.3962628745986055 0.8097380085535307 0  0.3505895299554843 0.7304878890838692 0  0.5019151500495276 0.9356042615328103 0  0.9374389419410134 0.4999931039076005 0  0.3125 1 0  0.1875 1 0  1 0.5625 0  0.4375 1 0  1 0.3125 0  1 0.4375 0  0.8125 0 0  1 0.1875 0  0.5625 0 0  0.1875 0 0  0 0.1875 0  0 0.5625 0  0 0.6875 0  0 0.8125 0  1 0.6875 0  1 0.8125 0  0.8021696218581627 0.6612893947866073 0  0.06154922295426143 0.6239401126946708 0  0.9359375 0.9359375 0  0.4666158024849896 0.7691515918155014 0  0.2318201265217025 0.7064974250277525 0  0.1565954253579966 0.6635489312486841 0  0.1598132503680848 0.7787147500325552 0  0.3146529991605639 0.8510876378205265 0  0.1461873209418733 0.05982804528877814 0  0.06109554988524315 0.2446551776247686 0  0.8054950308560754 0.5564226538848541 0  0.470541749491976 0.8853316336952531 0  0.6948472567465137 0.4042308563372457 0  0.8802828472348889 0.4658893256343853 0  0.6788075634946739 0.7974194205806069 0  0.2155048659603867 0.2428201584940968 0  0.8131223143423806 0.2132171049028394 0  0.4330798005432235 0.6671274900735726 0  0.6015279126162613 0.2187368078743274 0  0.8061636571464289 0.8703766630361714 0  0.7008230445061776 0.3478568388444072 0  0.8638466246958771 0.3147095987735538 0  0.204801534004265 0.8789209409594009 0  0.2449006736431132 0.9424182882803838 0  0.7611268409371427 0.2643056884799992 0  0.7552800864046191 0.7678006649959446 0  0.5983639638906616 0.864113435029236 0  0.1956559506814437 0.577281203577426 0  0.3527670268164207 0.1320469097565204 0  0.7530364577483248 0.3262386077083089 0  0.4535919187979363 0.4690107087451527 0  0.8824869791666666 0.8336588541666666 0  0.8814453125 0.9451171875 0  0.5582987942628019 0.622421666543858 0  0.6817532446064828 0.6939001801354731 0  0.3830295138888889 0.9450968952922078 0  0.4140603937012541 0.05211333372716105 0  0.5535864501303013 0.3060591985391672 0  0.6560130086346878 0.2729726562211558 0  0.890203140221684 0.5948314305427268 0  0.7043857725999024 0.593980890020804 0  0.5105843922695152 0.8016828014338627 0  0.05365910753708378 0.7315110031682004 0  0.616904573672261 0.4621186633436136 0  0.5338511646455415 0.387875898899613 0  0.5231769258947843 0.4477682463140762 0  0.650302973237622 0.7370722302085519 0  0.3927483139621257 0.4662414504529014 0  0.8034595960585199 0.4972538342758211 0  0.7738337841682438 0.9496376207663251 0  0.7193737507158268 0.954685447650112 0  0.482525916480686 0.5528257169991676 0  0.2533501157346781 0.2809495420003238 0  0.3118487924482243 0.5702930126570319 0  0.6257598847669529 0.4104163315430518 0  0.1354166666666667 0.1955605158730158 0  0.04166666666666666 0.15625 0  0.3956448985530264 0.6174149462065157 0  0.8102897701818546 0.3938784238208349 0  0.2641154190013625 0.8344469561943118 0  0.642852220770013 0.5068794586563659 0  0.05271458179508221 0.355846947336007 0  0.7021551360070266 0.8921457280225779 0  0.5692125776683765 0.1328512638850284 0  0.5206162811937602 0.04865158770992991 0  0.6001838442201555 0.04540556991297563 0  0.2597716608242787 0.4118346398477178 0  0.4040584599473195 0.3179589136784675 0  0.1480337679295207 0.8941560631483065 0  0.1344356707112281 0.9466251177415842 0  0.7114696411829317 0.4983917389078826 0  0.7585704698442475 0.5751926345944629 0  0.2189131956390871 0.04022068508159698 0  0.2476935455192043 0.1123642267635843 0  0.185995005654517 0.1365524537205238 0  0.6223414373308711 0.643380839165121 0  0.5732602596637543 0.7190051747306219 0  0.268358222364537 0.6586246524467934 0  0.3265879848129173 0.2369791782191225 0  0.1267095595787346 0.7034787238999181 0  0.1115202922226038 0.6421997933884982 0  0.3128688392940203 0.07260997451790079 0  0.550724900485678 0.9253360991633187 0  0.7142608810459105 0.2384904702214873 0  0.7045869185243887 0.1871826897887429 0  0.890625 0.734375 0  0.953125 0.765625 0  0.2111812642821677 0.8286209446459138 0  0.9590293078204457 0.09375 0  0.953431269039847 0.1435719386408004 0  0.04097069217955424 0.90625 0  0.04656873096015299 0.8564280613591996 0  0.1078743037981226 0.8541621766048062 0  0.8921256962018773 0.1458378233951939 0  0.8521576979194619 0.1084496634207678 0  0.8655663982740958 0.05464346096571447 0  0.04005659640905543 0.09375 0  0.1001448316533417 0.04246776244228261 
[...]
<CellData  Vectors="f_8394-1"> 
<DataArray  type="Float64"  Name="f_8394-1"  NumberOfComponents="3" format="ascii">9.5629309362056739e-05  8.2962678955077445e-05 0.0000000000000000e+00  3.1074658347021891e-05  4.1965651190929930e-05 0.0000000000000000e+00  3.1144224728272333e-05  3.9548872864017937e-05 0.0000000000000000e+00  1.7565142576468026e-05  2.4028495858475646e-05 0.0000000000000000e+00  4.8128146135952105e-05  8.7039738958024509e-05 0.0000000000000000e+00  4.0645452149160297e-05  4.1253802844449748e-05 0.0000000000000000e+00  3.3684625259310037e-05  2.4522449466565679e-04 0.0000000000000000e+00  2.1238598363997381e-05  3.5624510140064693e-04 0.0000000000000000e+00  3.0309316541038785e-04  1.9717119514167068e-05 0.0000000000000000e+00  1.3854663868537043e-04  5.3244843705167666e-06 0.0000000000000000e+00  6.0985179238943233e-05  2.9171185018227422e-05 0.0000000000000000e+00  2.1361522539053543e-04  2.5633528730927100e-04 0.0000000000000000e+00  1.6866918708473064e-04  3.1680966401101851e-04 0.0000000000000000e+00  2.4980818962693966e-04  1.8136732812243652e-04 0.0000000000000000e+00  3.1221277641119171e-04  1.4424194691663644e-04 0.0000000000000000e+00  2.6870381581945503e-04  1.0117443313660013e-04 0.0000000000000000e+00  1.8379337152910421e-04  2.0391281414836111e-04 0.0000000000000000e+00  8.4371175793655399e-05  9.8625586082117095e-05 0.0000000000000000e+00  4.8206812620945000e-05  2.2768888641690015e-04 0.0000000000000000e+00  1.3070386276759968e-04  4.9006808827292697e-05 0.0000000000000000e+00  1.3806962504677331e-04  3.3356043265373235e-05 0.0000000000000000e+00  2.4737404998408720e-04  9.3606037719984645e-05 0.0000000000000000e+00  2.7324004354815337e-04  8.7085175818803226e-05 0.0000000000000000e+00  3.5927603502143303e-05  2.4506028221792678e-04 0.0000000000000000e+00  4.6749827571691144e-05  1.2482944850457793e-04 0.0000000000000000e+00  5.9952632012974817e-05  2.9198319666764582e-04 0.0000000000000000e+00  7.0801976357935432e-06  4.1727748428394294e-05 0.0000000000000000e+00  2.2640033060951007e-04  3.0823590646224475e-05 0.0000000000000000e+00  2.0072141071141050e-05  3.4988145898811056e-04 0.0000000000000000e+00  1.3028200379443095e-04  1.5677167542473936e-05 0.0000000000000000e+00  3.0184165238233155e-04  4.5220620056001265e-05 0.0000000000000000e+00  1.1724182691432433e-04  1.6797251858838511e-04 0.0000000000000000e+00  1.2093191097256776e-04  6.6220503448677630e-05 0.0000000000000000e+00  1.8089005935961495e-04  2.8804611235488047e-04 0.0000000000000000e+00  6.9508636099587391e-05  2.3977111808305992e-05 0.0000000000000000e+00  9.4102585721349827e-05  5.2321276240131975e-05 0.0000000000000000e+00  9.6713729597157491e-05  1.3137202087213745e-04 0.0000000000000000e+00  5.1718741041167335e-05  2.5513916529266653e-04 0.0000000000000000e+00  1.8785359045897119e-04  2.9303184642749333e-05 0.0000000000000000e+00  8.5496288090810779e-05  7.7048249862588124e-05 0.0000000000000000e+00  8.3477576768946568e-05  7.2402166717242417e-05 0.0000000000000000e+00  1.3578928799962402e-04  8.2748422896934689e-05 0.0000000000000000e+00  2.8619835150458573e-04  1.3191477004962092e-04 0.0000000000000000e+00  3.1303315680832945e-04  1.3757612575129329e-04 0.0000000000000000e+00  5.0596183408752217e-05  1.5742049963584240e-05 0.0000000000000000e+00  3.6930040192180755e-04  1.8139024803086169e-04 0.0000000000000000e+00  2.6562687368556750e-04  1.3164628928822209e-04 0.0000000000000000e+00  3.3736039813952106e-05  3.7595417819602276e-05 0.0000000000000000e+00  3.5716027305607588e-04  2.6473745935019744e-04 0.0000000000000000e+00  3.4171128356131925e-04  2.1246993419119265e-04 0.0000000000000000e+00  2.9372294797447339e-04  2.7935416462315571e-04 0.0000000000000000e+00  3.2625764503645967e-04  3.1509701153598427e-04 0.0000000000000000e+00  4.9647688228187304e-05  1.4445104983845680e-04 0.0000000000000000e+00  9.2601958226818263e-05  4.8055529430217067e-05 0.0000000000000000e+00  4.6746226774458969e-05  8.1771031370215887e-05 0.0000000000000000e+00  2.2279863993394713e-04  2.2532324048005309e-04 0.0000000000000000e+00  1.7842442445644108e-04  1.6216220425691754e-04 0.0000000000000000e+00  1.6720399345703261e-04  4.9058898860957295e-05 0.0000000000000000e+00  7.1606200155693213e-05  1.8392440335026535e-05 0.0000000000000000e+00  2.3052908485575619e-05  3.1976790646809328e-04 0.0000000000000000e+00  1.8021039752815961e-05  3.0957329892639015e-04 0.0000000000000000e+00  2.8163922428166256e-04  3.5498247490083275e-05 0.0000000000000000e+00  2.9993283186156185e-05  7.0612716326914053e-05 0.0000000000000000e+00  2.7626277425556567e-05  1.4988483826061720e-04 0.0000000000000000e+00  4.2120307031994802e-05  1.6128777125175991e-04 0.0000000000000000e+00  2.6004089047310331e-04  5.2549475311197859e-05 0.0000000000000000e+00  4.1011182570187217e-05  2.4252686466386391e-04 0.0000000000000000e+00  3.3029312857447247e-04  1.8856950075296901e-05 0.0000000000000000e+00  1.8181359005714477e-05  3.4558255436385347e-04 0.0000000000000000e+00  1.1502255069300960e-04  3.6753509141063763e-04 0.0000000000000000e+00  1.2537607298436279e-04  3.4061455699634660e-04 0.0000000000000000e+00  2.9968184340010794e-04  1.6850239319554276e-04 0.0000000000000000e+00  5.1716546830305189e-05  4.8593284010428403e-05 0.0000000000000000e+00  8.6161871165687051e-05  1.4470347817915441e-04 0.0000000000000000e+00  1.4723142580536181e-04  2.0457317248013100e-04 0.0000000000000000e+00  8.3796956749566273e-05  2.7591234950785518e-04 0.0000000000000000e+00  1.2007984870793512e-04  2.7620216081901497e-04 0.0000000000000000e+00  1.1940632667332489e-04  1.9212673901583470e-04 0.0000000000000000e+00  9.3118445737727420e-05  2.4160197376896255e-04 0.0000000000000000e+00  2.4267221887825323e-05  1.8128534795929774e-04 0.0000000000000000e+00  2.1887328383425289e-05  1.4325917341708770e-04 0.0000000000000000e+00  2.0469447590045099e-05  1.3139613263056247e-04 0.0000000000000000e+00  4.1856128771908312e-05  1.1667122734578717e-04 0.0000000000000000e+00  2.5958882355898474e-05  3.6149686092339214e-04 0.0000000000000000e+00  3.1655209354089069e-04  4.3186021021143135e-05 0.0000000000000000e+00  2.0164403280712893e-04  3.3159007671241625e-05 0.0000000000000000e+00  1.9835294098428835e-04  7.2029331599347588e-05 0.0000000000000000e+00  2.9918267856064333e-04  5.5578524063809739e-05 0.0000000000000000e+00  1.9824331111110367e-04  1.0259163691272079e-04 0.0000000000000000e+00  1.2368351165690505e-04  9.1567456460963577e-05 0.0000000000000000e+00  1.8071707170363009e-04  3.3027749660507330e-05 0.0000000000000000e+00  1.5806140516591224e-04  5.1775918997562766e-05 0.0000000000000000e+00  2.3387689171681415e-05  2.2318563201346557e-05 0.0000000000000000e+00  2.1604788615682795e-05  3.4347326323742828e-06 0.0000000000000000e+00  4.0280021146085202e-05  4.2092661527011151e-05 0.0000000000000000e+00  5.7444022848402973e-05  4.2902651215320963e-05 0.0000000000000000e+00  6.8835474696928725e-05  2.6152631108339850e-05 0.0000000000000000e+00  2.2707379946744141e-04  3.6266231274626284e-04 0.0000000000000000e+00  2.2042563020185479e-04  3.3250559975121855e-04 0.0000000000000000e+00  1.0789350025111908e-04  5.0180775138286291e-05 0.0000000000000000e+00  8.2080222326719006e-05  4.0556350451662586e-05 0.0000000000000000e+00  9.3785429631767104e-05  5.7071439141869295e-05 0.0000000000000000e+00  1.0152394662747451e-04  3.8560137422692688e-05 0.0000000000000000e+00  1.8887144059526859e-04  1.4796674468061407e-04 0.0000000000000000e+00  1.8543639704300563e-04  1.2333866347087605e-04 0.0000000000000000e+00  2.3987280407048754e-04  6.2337064492807372e-05 0.0000000000000000e+00  1.9145426443365049e-04  8.9851818745900346e-05 0.0000000000000000e+00  2.0742043975009118e-04  4.1484624146081841e-05 0.0000000000000000e+00  1.7400609011912195e-04  2.5109666325697143e-05 0.0000000000000000e+00  1.9447359323214438e-05  2.9721432421653298e-04 0.0000000000000000e+00  2.6333619845692247e-05  3.0459060688678224e-04 0.0000000000000000e+00  3.4937136181772721e-04  1.5151096369037526e-05 0.0000000000000000e+00  3.3657145628931116e-04  3.1177061928462849e-05 0.0000000000000000e+00  2.5764587976711840e-04  1.9772749134529132e-05 0.0000000000000000e+00  2.4930888563514043e-04  1.0964830350520003e-05 0.0000000000000000e+00  3.0947298587199725e-05  2.4685408221017732e-04 0.0000000000000000e+00  4.8981549736886788e-05  1.8617523919218945e-04 0.0000000000000000e+00  3.4614833135267160e-04  4.2155213019872824e-05 0.0000000000000000e+00  2.8016576159749950e-04  1.8410395930270677e-04 0.0000000000000000e+00  2.4029373346799881e-04  2.1324058009994688e-04 0.0000000000000000e+00  1.0455611729734028e-04  2.9727228124135807e-04 0.0000000000000000e+00  1.0269215915644937e-04  3.4449793801492748e-04 0.0000000000000000e+00  4.3771539827762622e-05  1.2823669450108319e-04 0.0000000000000000e+00  6.7860077726219155e-05  1.5814479850675636e-04 0.0000000000000000e+00  2.4139666568025664e-05  1.2191710779511781e-04 0.0000000000000000e+00  3.8829019831373316e-05  1.3300701857169798e-04 0.0000000000000000e+00  3.1889550771279583e-04  1.0186524794307279e-04 0.0000000000000000e+00  3.4188699442115091e-04  1.2423946017733019e-04 0.0000000000000000e+00  8.5754401062205723e-05  3.2497352270999198e-04 0.0000000000000000e+00  8.7550745017343621e-05  1.8856126765111293e-04 0.0000000000000000e+00  1.3281731662127688e-04  1.4898989521532668e-04 0.0000000000000000e+00  1.5375740852600176e-04  1.3596499444648496e-04 0.0000000000000000e+00  1.3910783110315038e-04  2.9311731211035044e-04 0.0000000000000000e+00  1.2504488610675605e-04  2.8790634117600904e-04 0.0000000000000000e+00  6.5688977717506076e-05  2.9425840144647609e-04 0.0000000000000000e+00  7.7923283365011678e-05  3.2529493462580487e-04 0.0000000000000000e+00  1.6929422984783335e-04  1.5814436197493853e-04 0.0000000000000000e+00  1.1539445648303853e-04  1.7477329976297418e-04 0.0000000000000000e+00  1.9202694915610558e-04  3.5775782504027533e-05 0.0000000000000000e+00  2.1064808971502330e-04  3.9565860837221010e-05 0.0000000000000000e+00  2.5319604648404302e-05  4.2203316340811262e-05 0.0000000000000000e+00  2.8062190653367507e-05  1.8436619071543714e-05 0.0000000000000000e+00  1.9288439075145748e-05  4.5006782096146901e-05 0.0000000000000000e+00  3.8479307541843299e-05  2.6146268991752365e-05 0.0000000000000000e+00  3.3320752055913732e-05  1.1832092511633561e-04 0.0000000000000000e+00  3.6537244072559763e-05  7.5082296507239318e-05 0.0000000000000000e+00  3.3820940349657888e-04  1.7234671624454250e-04 0.0000000000000000e+00  2.6474096596597281e-04  1.5316064791196445e-04 0.0000000000000000e+00  1.6895954976419491e-04  2.9340470458265631e-04 0.0000000000000000e+00  1.8702570946836948e-04  3.4430326469208380e-04 0.0000000000000000e+00  3.0701682004437960e-05  2.0877333674025747e-04 0.0000000000000000e+00  4.7115547897621599e-05  1.7878662954135636e-04 0.0000000000000000e+00  2.2199216247807494e-05  7.3930524187249371e-05 0.0000000000000000e+00  1.6488668659442989e-05  4.9575992362682350e-05 0.0000000000000000e+00  2.1367397870676232e-05  7.2351755416784463e-05 0.0000000000000000e+00  5.0548100207329303e-05  1.1369859945700127e-04 0.0000000000000000e+00  6.3577928278412083e-05  9.5463394991003722e-05 0.0000000000000000e+00  1.0295835477739515e-04  2.5325332029195227e-05 0.0000000000000000e+00  1.0809655475747854e-04  6.9033648476386699e-05 0.0000000000000000e+00  8.0297080136009936e-05  1.0519118843761839e-04 0.0000000000000000e+00  6.7375432687291783e-05  6.3381670846155910e-05 0.0000000000000000e+00  1.2577552070053031e-04  7.7343163736742028e-05 0.0000000000000000e+00  1.1152230919340281e-04  1.1652510045999702e-04 0.0000000000000000e+00  3.1801527294406356e-04  8.1094795893799386e-05 0.0000000000000000e+00  2.6106440928968806e-04  9.9888417093789089e-05 0.0000000000000000e+00  2.3457571701844201e-04  2.3437851042555269e-04 0.0000000000000000e+00  2.1910198887986835e-04  2.4336820674082191e-04 0.0000000000000000e+00  1.9343941993569600e-04  1.2985204343654241e-04 0.0000000000000000e+00  1.5594775105879291e-04  9.7537609109772194e-05 0.0000000000000000e+00  5.2826528635786823e-05  9.7171641309531164e-05 0.0000000000000000e+00  3.9921217304061280e-05  6.3696794368846345e-05 0.0000000000000000e+00  6.6327104432464836e-05  3.0780714657287233e-04 0.0000000000000000e+00  4.6652012245158771e-05  3.7948003582583803e-04 0.0000000000000000e+00  3.1226998589715276e-04  3.8225976457751016e-04 0.0000000000000000e+00  2.9354180647661539e-04  3.4133833023800524e-04 0.0000000000000000e+00  1.0327343978699377e-04  1.1766859693424007e-04 0.0000000000000000e+00  8.5146349847006644e-05  1.5245665659982055e-04 0.0000000000000000e+00  1.8646845937783676e-04  3.7693897607646014e-05 0.0000000000000000e+00  1.3450893698899145e-04  4.9622138359935861e-05 0.0000000000000000e+00  3.4437087935122930e-04  3.2894632230273668e-04 0.0000000000000000e+00  3.2037578954830073e-04  3.3390716086625119e-04 0.0000000000000000e+00  2.5045252800548881e-05  5.8351849732513131e-05 0.0000000000000000e+00  2.0863341597921597e-05  6.6909149378748363e-05 0.0000000000000000e+00  1.0486195183423761e-04  3.6465762221138550e-04 0.0000000000000000e+00  1.4842877604856749e-04  3.6678227217846733e-04 0.0000000000000000e+00  1.7322096673304030e-04  3.3947512476707980e-04 0.0000000000000000e+00  1.4957610234048535e-04  3.5607529677860313e-04 0.0000000000000000e+00  2.2209363218291697e-04  1.6981981473389708e-05 0.0000000000000000e+00  8.5438992761783646e-05  4.6347570208913488e-05 0.0000000000000000e+00  9.0928295275746054e-05  4.9004054315029241e-05 0.0000000000000000e+00  1.8471677392070348e-04  1.5654693973918073e-04 0.0000000000000000e+00  1.7691092098676568e-04  1.7680521444110884e-04 0.0000000000000000e+00  5.3493680052649262e-05  1.5392596436718242e-04 0.0000000000000000e+00  4.2748494563002596e-05  1.4996782558329819e-04 0.0000000000000000e+00  1.9272996168452717e-04  2.1045487037744576e-05 0.0000000000000000e+00  1.9236291900208064e-04  2.7812163292554148e-05 0.0000000000000000e+00  1.7564937067822113e-04  4.4797831420399892e-05 0.0000000000000000e+00  1.6189638027773993e-04  3.5464127909054013e-05 0.0000000000000000e+00  9.9000049848869330e-05  2.3483961582644741e-04 0.0000000000000000e+00  8.8905298098579570e-05  1.8421774552703328e-04 0.0000000000000000e+00  8.0816513629916099e-05  1.8169781892211185e-04 0.0000000000000000e+00  8.8977617623653391e-05  2.0445892909415738e-04 0.0000000000000000e+00  3.8062165355521311e-05  2.8498245143333693e-05 0.0000000000000000e+00  3.0775799069476673e-05  5.9116359217907774e-05 0.0000000000000000e+00  1.3561723801112192e-04  1.3305104732026535e-04 0.0000000000000000e+00  1.5496030099848568e-04  1.3753231155614134e-04 0.0000000000000000e+00  7.8744245146707557e-05  7.6561004058624924e-05 0.0000000000000000e+00  2.7137432984373803e-05  9.7472057841000291e-05 0.0000000000000000e+00  7.1293560654558786e-05  1.8838681711058780e-05 0.0000000000000000e+00  1.1718268121111329e-04  5.0122079886368075e-05 0.0000000000000000e+00  1.2534061415784984e-04  3.1871984207364323e-05 0.0000000000000000e+00  9.3917975001337034e-05  4.5523785128520816e-05 0.0000000000000000e+00  7.4158951145934790e-05  5.6628127601612830e-05 0.0000000000000000e+00  9.1395738361137126e-05  4.4809690269647204e-05 0.0000000000000000e+00  7.2404291448620859e-05  3.0528466839582111e-05 0.0000000000000000e+00  3.5069558758061414e-04  1.8645882573832117e-04 0.0000000000000000e+00  3.4993575974820614e-04  2.1555322082461467e-04 0.0000000000000000e+00  3.2476955083895781e-04  1.8109399340019442e-04 0.0000000000000000e+00  3.3118937594925867e-04  3.3462113952723775e-04 0.0000000000000000e+00  2.1341506201225021e-04  3.7288079292075908e-04 0.0000000000000000e+00  2.5244693188710060e-05  2.2969056188127955e-04 0.0000000000000000e+00  2.5145238353520224e-05  2.2124347149986797e-04 0.0000000000000000e+00  2.7468210147850171e-04  3.7651146383716098e-05 0.0000000000000000e+00  3.4776597211553801e-04  2.5308173150440809e-05 0.0000000000000000e+00  1.4706559916786478e-04  8.8595013557453447e-05 0.0000000000000000e+00  8.7874528957930089e-05  6.9968789912113209e-05 0.0000000000000000e+00  4.6810582429097641e-05  2.8562480540111699e-05 0.0000000000000000e+00  3.7278221105118756e-05  3.5373228896666251e-05 0.0000000000000000e+00  2.7370123777260814e-04  2.8413766057397129e-04 0.0000000000000000e+00  3.1095503765081234e-04  2.8584710683911746e-04 0.0000000000000000e+00  6.6303272554230004e-05  6.2577412290409503e-05 0.0000000000000000e+00  1.1028096655173549e-04  5.7802996125768520e-05 0.0000000000000000e+00  4.2750751543555344e-05  2.1615035585803523e-04 0.0000000000000000e+00  5.4623282172108537e-05  1.6185469126588900e-04 0.0000000000000000e+00  2.7396420981061308e-04  3.7957360160674873e-05 0.0000000000000000e+00  3.0479867276988196e-04  4.4818971415235310e-05 0.0000000000000000e+00  3.1492419961294760e-04  2.3999217903060740e-05 0.0000000000000000e+00  2.3052872564013150e-04  1.2494394892897537e-05 0.0000000000000000e+00  1.9408738009670586e-04  1.4874281830022432e-05 0.0000000000000000e+00  1.9721413030605872e-04  9.6883494381074558e-05 0.0000000000000000e+00  2.2982047212960420e-04  5.2895822689873285e-05 0.0000000000000000e+00  3.3903108081371542e-04  2.9103373837649228e-04 0.0000000000000000e+00  1.1521292420565663e-04  2.7997272119850220e-04 0.0000000000000000e+00  1.0929701401372762e-04  2.2285038039922234e-04 0.0000000000000000e+00  3.3762298396208226e-04  6.5891248930101992e-05 0.0000000000000000e+00  3.1403368868932439e-04  8.4916768833290162e-05 0.0000000000000000e+00  4.1149608771988167e-04  4.1052867444912313e-06 0.0000000000000000e+00  1.8945246540512851e-05  3.5579209325287483e-04 0.0000000000000000e+00  4.4286392022989577e-06  4.0464325247174891e-04 0.0000000000000000e+00  3.8826301963982387e-05  8.7971560703796708e-05 0.0000000000000000e+00  2.1335088383003192e-05  1.2418269711555763e-04 0.0000000000000000e+00  2.3291563695240728e-05  7.1538961434093612e-05 0.0000000000000000e+00  2.5976753956251256e-05  6.6744283099885165e-05 0.0000000000000000e+00  4.9887550954391402e-05  8.7382977417034731e-05 0.0000000000000000e+00  3.7821980600348598e-05  1.4670131850873567e-04 0.0000000000000000e+00  4.1941830075731285e-05  5.4496601866332497e-05 0.0000000000000000e+00  3.1232375138298221e-05  2.1303698035868683e-05 0.0000000000000000e+00  2.8883630718738533e-05  4.6077764212978997e-05 0.0000000000000000e+00  3.5140624934527804e-05  1.7510993524122788e-05 0.0000000000000000e+00  2.0104011202480299e-04  1.9451824137359827e-04 0.0000000000000000e+00  2.2787238850395153e-04  1.8932461846592454e-04 0.0000000000000000e+00  2.5837172248279818e-05  -3.7564842643092984e-06 0.0000000000000000e+00  2.6761361897173304e-05  -6.6951806008524082e-07 0.0000000000000000e+00  2.4100508770156568e-05  5.0114208633127391e-05 0.0000000000000000e+00  3.1011029656851090e-04  2.4050251396049111e-04 0.0000000000000000e+00  2.8793587082429572e-04  2.8302815099297539e-04 0.0000000000000000e+00  5.3934833444967069e-05  4.6313750301726045e-05 0.0000000000000000e+00  3.2899427235014413e-05  3.8421222318201233e-05 0.0000000000000000e+00  6.4820689527037904e-05  3.0062386843304370e-05 0.0000000000000000e+00  1.2154219570122841e-04  2.3377792394271275e-05 0.0000000000000000e+00  5.1064141570789113e-05  9.4251433022523833e-05 0.0000000000000000e+00  2.4308903109648190e-05  1.1258194079777218e-04 0.0000000000000000e+00  5.0776341763149901e-05  1.2788004066783117e-04 0.0000000000000000e+00  5.2340626365423921e-05  1.2292706696286038e-04 0.0000000000000000e+00  6.0961321449550559e-05  2.6415722701302020e-04 0.0000000000000000e+00  7.5171528332209961e-05  2.6790005807069214e-04 0.0000000000000000e+00  6.5157894569533372e-05  1.8469867958326205e-04 0.0000000000000000e+00  5.8403942910898954e-05  2.2822141937827570e-04 0.0000000000000000e+00  1.2038508083172785e-04  3.7368981605364574e-04 0.0000000000000000e+00  1.0038324589530526e-04  3.9400479758218339e-04 0.0000000000000000e+00  3.6