<?xml version="1.0"?>
<VTKFile type="UnstructuredGrid"  version="0.1"  >
<UnstructuredGrid>
<Piece  NumberOfPoints="1385" NumberOfCells="2640">
<Points>
<DataArray  type="Float64"  NumberOfComponents="3"  format="ascii">0 0 0  1 0 0  1 1 0  0 1 0  0.5 0 0  1 0.5 0  0.5 1 0  0 0.5 0  0.5 0.5 0  0 0.25 0  0.25 0 0  0.25 1 0  0 0.75 0  1 0.25 0  0.75 0 0  1 0.75 0  0.75 1 0  0.7083333333333333 0.2916666666666667 0  0.2916666666666666 0.7083333333333334 0  0.375 0.25 0  0.75 0.625 0  0.2569444444444444 0.4652777777777778 0  0.5366379310344828 0.7535919540229885 0  0.1875 0.1875 0  0.8125 0.8125 0  0.869047619047619 0.375 0  0.1450441919191919 0.6052714646464646 0  0.375 0.8690476190476191 0  0.5526960784313725 0.1825980392156862 0  0.8385416666666666 0.1614583333333334 0  0.1614583333333333 0.8385416666666667 0  0.6736111111111112 0.4652777777777778 0  0.1367521367521368 0.3477564102564102 0  0.6570970491253563 0.8648656830417855 0  0.5102479397556124 0.3386260301221938 0  0.3654513888888889 0.5737847222222222 0  0.6929750044954185 0.1362784921584263 0  0.388576102743835 0.411911725237599 0  0.6091269841269842 0.5942460317460317 0  0.875 0.6875 0  0.427278890279516 0.119889445139758 0  0.8544456845238095 0.5213913690476191 0  0.125 0 0  0 0.125 0  1 0.875 0  0.875 1 0  0.1280008648150532 0.4769292340226777 0  0.2695382451711197 0.3321750950221553 0  0.7031567235715964 0.7447810921428012 0  0.625 0 0  0.375 0 0  0.125 1 0  0.875 0 0  0 0.375 0  0 0.625 0  1 0.375 0  0.375 1 0  1 0.125 0  0 0.875 0  0.625 1 0  1 0.625 0  0.2979288363930608 0.1201429454643536 0  0.410919540229885 0.7484605911330049 0  0.5325041980395562 0.878905151526474 0  0.4831670727569156 0.6331060043826487 0  0.1735997378973042 0.7204747378973043 0  0.2534919507575758 0.5772372159090909 0  0.2633928571428572 0.8876488095238095 0  0.8199404761904761 0.2730654761904762 0  0.75830270586982 0.3919383189517417 0  0.5750282248382511 0.4237522353023667 0  0.6008360210023379 0.2794828358598495 0  0.08163442644334186 0.6821295860397322 0  0.08333333333333333 0.1875 0  0.2028380815996574 0.08844602719988583 0  0.2766521142611967 0.2325436572164097 0  0.90625 0.78125 0  0.890625 0.890625 0  0.7545696325008384 0.8973565441669461 0  0.5625 0.08086590340834317 0  0.09077380952380953 0.09077380952380952 0  0.4610923478694773 0.209034015149656 0  0.7542527598351648 0.5248380520595106 0  0.6459235536037465 0.3619913988405765 0  0.7560381768882634 0.20506142233852 0  0.07073252688172042 0.8125 0  0.0924753097241701 0.9078102849914793 0  0.9292674731182795 0.1875 0  0.9075246902758297 0.09218971500852073 0  0.8125 0.07073252688172045 0  0.2400955776842301 0.7869705776842302 0  0.9121050213379069 0.2781978201831695 0  0.7916878157143976 0.7239689078571988 0  0.9345238095238094 0.4375 0  0.4375 0.9345238095238095 0  0.3725616989755203 0.6651895248862173 0  0.06536271996350887 0.5625 0  0.9348362560379583 0.5625 0  0.456646798987055 0.8277247094351965 0  0.1875 0.9355758238725954 0  0.6169761231634859 0.6939779188977889 0  0.6226854751147515 0.7827911461419014 0  0.3305695598137626 0.7901697871282585 0  0.5865305325818898 0.5101085479043448 0  0.6622701297028378 0.2177663989757395 0  0.1354166666666667 0.2591702279202279 0  0 0.3125 0  0.2094429575680048 0.3936361846162499 0  0.836666296419157 0.607917407161686 0  0.6875 1 0  0.214261555450504 0.6492551722020035 0  0 0.4375 0  0.07731537126068377 0.40625 0  0.3427725432967068 0.4879566233699599 0  0.3550792513951871 0.3331953632609953 0  0.4462473953896857 0.2887834789342508 0  0.4747801464819794 0.417386052030127 0  0.8229836475148948 0.4443292349237342 0  0.7322605135514757 0.8199240278289671 0  0.6756431877205955 0.5468989748126787 0  0.1968419507215863 0.5194573482612496 0  0.3285590277777778 0.9345238095238095 0  0.8125 1 0  0.4198917601920009 0.5134893045331258 0  0.5232405503206691 0.2595791787880157 0  1 0.9375 0  0.1987510870015086 0.3025185951894431 0  0.5625 1 0  0.6005390654136388 0.9228110509230952 0  0.6411254848194414 0.07704872765442942 0  0.3357233162523242 0.1855113224530532 0  0.6730653396610877 0.6393887462324165 0  0.310966987234063 0.6240019765311626 0  0.7368737836204349 0.07457755202327881 0  0.6192316414418171 0.1485238406378594 0  0.5432429670607106 0.678552703844006 0  0.4754371679695679 0.7103946803120881 0  0.07501324890749672 0.3043839897335739 0  0.5358146975860403 0.5688321463205916 0  0.3115271739500156 0.3982137365971444 0  0.3625191397122174 0.0767854603650549 0  0.5024029442563831 0.1264128223758444 0  0.4375 0 0  0.4699946908887376 0.06379961173775725 0  0.9375 0.71875 0  0.9272105898044465 0.635671179608893 0  0.9375 1 0  0.6690971819568612 0.9331530898202766 0  0.1073454944778885 0.7499206387638554 0  0.8699082999280406 0.2232403652524313 0  0.5773118091863964 0.3548027349159383 0  0.1354166666666667 0.1428571428571428 0  0.3125 0 0  0.8241684193077341 0.9257452995055244 0  0.4352314948354036 0.3586940847489378 0  0.4351301473778832 0.5819726043539077 0  0.8073232928518163 0.3419398170341962 0  0.7775949246947366 0.1298519409204575 0  0.6875 0 0  0.7413513991851041 0.457933324954483 0  0.939453125 0.841796875 0  0.5630355154606987 0.8171875156478349 0  0.9345238095238095 0.3461466592368577 0  0.9375 0 0  1 0.0625 0  0.0625 1 0  0 0.9375 0  0.06552178593177167 0.4969053669623468 0  0.1424866619031703 0.4130277709291224 0  0.1275287182444726 0.5422946908002588 0  0.2637686595586339 0.06413888464529549 0  0.2524263535491086 0.1697437503243817 0  0.7367218397988525 0.6888573970660841 0  0.0625 0 0  0 0.0625 0  0.8463594539285995 0.7578283617857982 0  0.3128751192101563 0.2851997374369947 0  0.4015281788351144 0.1806421385113692 0  0.1910251795116588 0.4553332197174453 0  0.287797471442006 0.5222621440543902 0  0.3962628745986055 0.8097380085535307 0  0.3505895299554843 0.7304878890838692 0  0.5019151500495276 0.9356042615328103 0  0.9374389419410134 0.4999931039076005 0  0.3125 1 0  0.1875 1 0  1 0.5625 0  0.4375 1 0  1 0.3125 0  1 0.4375 0  0.8125 0 0  1 0.1875 0  0.5625 0 0  0.1875 0 0  0 0.1875 0  0 0.5625 0  0 0.6875 0  0 0.8125 0  1 0.6875 0  1 0.8125 0  0.8021696218581627 0.6612893947866073 0  0.06154922295426143 0.6239401126946708 0  0.9359375 0.9359375 0  0.4666158024849896 0.7691515918155014 0  0.2318201265217025 0.7064974250277525 0  0.1565954253579966 0.6635489312486841 0  0.1598132503680848 0.7787147500325552 0  0.3146529991605639 0.8510876378205265 0  0.1461873209418733 0.05982804528877814 0  0.06109554988524315 0.2446551776247686 0  0.8054950308560754 0.5564226538848541 0  0.470541749491976 0.8853316336952531 0  0.6948472567465137 0.4042308563372457 0  0.8802828472348889 0.4658893256343853 0  0.6788075634946739 0.7974194205806069 0  0.2155048659603867 0.2428201584940968 0  0.8131223143423806 0.2132171049028394 0  0.4330798005432235 0.6671274900735726 0  0.6015279126162613 0.2187368078743274 0  0.8061636571464289 0.8703766630361714 0  0.7008230445061776 0.3478568388444072 0  0.8638466246958771 0.3147095987735538 0  0.204801534004265 0.8789209409594009 0  0.2449006736431132 0.9424182882803838 0  0.7611268409371427 0.2643056884799992 0  0.7552800864046191 0.7678006649959446 0  0.5983639638906616 0.864113435029236 0  0.1956559506814437 0.577281203577426 0  0.3527670268164207 0.1320469097565204 0  0.7530364577483248 0.3262386077083089 0  0.4535919187979363 0.4690107087451527 0  0.8824869791666666 0.8336588541666666 0  0.8814453125 0.9451171875 0  0.5582987942628019 0.622421666543858 0  0.6817532446064828 0.6939001801354731 0  0.3830295138888889 0.9450968952922078 0  0.4140603937012541 0.05211333372716105 0  0.5535864501303013 0.3060591985391672 0  0.6560130086346878 0.2729726562211558 0  0.890203140221684 0.5948314305427268 0  0.7043857725999024 0.593980890020804 0  0.5105843922695152 0.8016828014338627 0  0.05365910753708378 0.7315110031682004 0  0.616904573672261 0.4621186633436136 0  0.5338511646455415 0.387875898899613 0  0.5231769258947843 0.4477682463140762 0  0.650302973237622 0.7370722302085519 0  0.3927483139621257 0.4662414504529014 0  0.8034595960585199 0.4972538342758211 0  0.7738337841682438 0.9496376207663251 0  0.7193737507158268 0.954685447650112 0  0.482525916480686 0.5528257169991676 0  0.2533501157346781 0.2809495420003238 0  0.3118487924482243 0.5702930126570319 0  0.6257598847669529 0.4104163315430518 0  0.1354166666666667 0.1955605158730158 0  0.04166666666666666 0.15625 0  0.3956448985530264 0.6174149462065157 0  0.8102897701818546 0.3938784238208349 0  0.2641154190013625 0.8344469561943118 0  0.642852220770013 0.5068794586563659 0  0.05271458179508221 0.355846947336007 0  0.7021551360070266 0.8921457280225779 0  0.5692125776683765 0.1328512638850284 0  0.5206162811937602 0.04865158770992991 0  0.6001838442201555 0.04540556991297563 0  0.2597716608242787 0.4118346398477178 0  0.4040584599473195 0.3179589136784675 0  0.1480337679295207 0.8941560631483065 0  0.1344356707112281 0.9466251177415842 0  0.7114696411829317 0.4983917389078826 0  0.7585704698442475 0.5751926345944629 0  0.2189131956390871 0.04022068508159698 0  0.2476935455192043 0.1123642267635843 0  0.185995005654517 0.1365524537205238 0  0.6223414373308711 0.643380839165121 0  0.5732602596637543 0.7190051747306219 0  0.268358222364537 0.6586246524467934 0  0.3265879848129173 0.2369791782191225 0  0.1267095595787346 0.7034787238999181 0  0.1115202922226038 0.6421997933884982 0  0.3128688392940203 0.07260997451790079 0  0.550724900485678 0.9253360991633187 0  0.7142608810459105 0.2384904702214873 0  0.7045869185243887 0.1871826897887429 0  0.890625 0.734375 0  0.953125 0.765625 0  0.2111812642821677 0.8286209446459138 0  0.9590293078204457 0.09375 0  0.953431269039847 0.1435719386408004 0  0.04097069217955424 0.90625 0  0.04656873096015299 0.8564280613591996 0  0.1078743037981226 0.8541621766048062 0  0.8921256962018773 0.1458378233951939 0  0.8521576979194619 0.1084496634207678 0  0.8655663982740958 0.05464346096571447 0  0.04005659640905543 0.09375 0  0.1001448316533417 0.04246776244228261 
[...]
<CellData  Vectors="f_8394-1"> 
<DataArray  type="Float64"  Name="f_8394-1"  NumberOfComponents="3" format="ascii">3.2945351846880452e-05  3.3111836988519375e-05 0.0000000000000000e+00  2.6162911016079352e-05  2.1004905902876847e-05 0.0000000000000000e+00  1.3604631283569820e-05  2.1175597498211233e-05 0.0000000000000000e+00  1.3707371401453230e-05  2.2234310119439441e-05 0.0000000000000000e+00  2.5958148217133775e-05  3.7112419648429734e-05 0.0000000000000000e+00  2.5449460939795603e-05  3.5117208146170401e-05 0.0000000000000000e+00  3.2072382723024836e-05  5.8836346617716466e-05 0.0000000000000000e+00  9.3963662219393940e-06  9.7215739381723893e-05 0.0000000000000000e+00  7.9825509341544990e-05  1.9400648653151269e-05 0.0000000000000000e+00  3.9299293982064621e-05  7.9639427619182371e-08 0.0000000000000000e+00  2.5152508727471640e-05  2.1747507778589640e-05 0.0000000000000000e+00  5.2247581931980004e-05  6.3797570021493087e-05 0.0000000000000000e+00  4.1939384677126463e-05  8.0308756309051984e-05 0.0000000000000000e+00  6.5049139444066232e-05  4.5541609877531950e-05 0.0000000000000000e+00  8.1474779526672717e-05  3.5730061188338920e-05 0.0000000000000000e+00  7.4118396882376855e-05  3.2525975816550473e-05 0.0000000000000000e+00  4.8239675589518550e-05  5.2947839999345844e-05 0.0000000000000000e+00  2.8202579274672455e-05  3.8741836029179811e-05 0.0000000000000000e+00  2.0962927312486950e-05  6.9980709795991532e-05 0.0000000000000000e+00  4.0124966566254766e-05  2.8325170591568958e-05 0.0000000000000000e+00  3.9468381787989633e-05  2.4173384666813712e-05 0.0000000000000000e+00  6.6440490121316261e-05  2.8081081402417207e-05 0.0000000000000000e+00  7.5414701027368039e-05  2.3510969606955439e-05 0.0000000000000000e+00  1.3820461275518724e-05  6.6317105243318287e-05 0.0000000000000000e+00  1.3901629020649969e-05  4.4077819291992300e-05 0.0000000000000000e+00  1.9608575690965221e-05  8.7684683451487458e-05 0.0000000000000000e+00  8.7610123574086395e-06  4.3655615579782279e-05 0.0000000000000000e+00  7.0231649356002602e-05  2.2400938775334483e-05 0.0000000000000000e+00  6.4789381439787820e-06  9.6095963235923011e-05 0.0000000000000000e+00  3.3850604890077795e-05  7.8991155224403128e-06 0.0000000000000000e+00  8.6881245721237395e-05  1.7790902650909724e-05 0.0000000000000000e+00  2.6958084553328266e-05  4.6818286515756200e-05 0.0000000000000000e+00  2.3893284569560004e-05  2.5265243689890735e-05 0.0000000000000000e+00  4.5396151642104225e-05  7.2534252558776796e-05 0.0000000000000000e+00  3.4235180189316328e-05  9.0117883993519598e-06 0.0000000000000000e+00  5.7109308497621280e-05  2.5649000595712520e-05 0.0000000000000000e+00  3.8432163797711194e-05  4.9585898586855736e-05 0.0000000000000000e+00  2.3296842970627796e-05  6.7313483145340478e-05 0.0000000000000000e+00  4.1979513130099194e-05  2.9003561733501894e-05 0.0000000000000000e+00  3.5016631439788489e-05  2.1960814249466334e-05 0.0000000000000000e+00  3.5937358108737046e-05  1.9420734388348762e-05 0.0000000000000000e+00  4.0916270107790714e-05  3.2316205269367571e-05 0.0000000000000000e+00  7.4317410371063709e-05  3.3995949894696628e-05 0.0000000000000000e+00  8.1680561020635347e-05  3.4169846914382236e-05 0.0000000000000000e+00  2.0583858283418440e-05  1.4897920663738168e-05 0.0000000000000000e+00  9.2523043798954733e-05  4.4755654605744313e-05 0.0000000000000000e+00  7.1559539763434575e-05  3.2610035941919499e-05 0.0000000000000000e+00  2.0183383090652079e-05  3.7716187929104525e-05 0.0000000000000000e+00  8.5460840563154764e-05  6.1012508427286307e-05 0.0000000000000000e+00  8.3883229071031291e-05  5.1114563152760392e-05 0.0000000000000000e+00  6.8207753720656979e-05  6.7845485889283762e-05 0.0000000000000000e+00  7.4054761223706553e-05  7.5235665046765224e-05 0.0000000000000000e+00  3.2109240531211309e-05  5.1624289619400842e-05 0.0000000000000000e+00  5.9998181676404386e-05  2.2987046384027612e-05 0.0000000000000000e+00  2.6101798341549044e-05  2.8180657011170408e-05 0.0000000000000000e+00  5.4854350582228958e-05  5.6476222533273058e-05 0.0000000000000000e+00  4.7382131932939659e-05  4.2352518803214910e-05 0.0000000000000000e+00  4.1771696072167181e-05  4.5575421335696770e-05 0.0000000000000000e+00  2.8703075640015545e-05  1.2711365402751511e-05 0.0000000000000000e+00  1.9441780770990665e-05  9.2804436718232488e-05 0.0000000000000000e+00  6.4410795297735552e-06  8.5417855734283359e-05 0.0000000000000000e+00  7.4733031920913088e-05  3.5580203152103031e-05 0.0000000000000000e+00  3.0669971602529328e-05  3.4848121599601423e-05 0.0000000000000000e+00  2.1973989418936221e-05  4.7167266082189442e-05 0.0000000000000000e+00  4.2329376516610703e-05  4.8601208554556360e-05 0.0000000000000000e+00  6.6891076156586822e-05  1.3803820757733750e-05 0.0000000000000000e+00  1.9289433995444045e-05  7.1487144775624745e-05 0.0000000000000000e+00  8.9719723329107642e-05  1.8080181341504285e-05 0.0000000000000000e+00  8.1652858559134814e-06  9.1558839255890891e-05 0.0000000000000000e+00  2.8416417753238046e-05  9.4074941609481258e-05 0.0000000000000000e+00  3.1849259627102097e-05  8.8416479268822574e-05 0.0000000000000000e+00  7.6941717007757049e-05  4.1264155613802514e-05 0.0000000000000000e+00  4.3186820118040851e-05  2.1097925108549510e-05 0.0000000000000000e+00  1.9297993052211163e-05  4.6500143518704122e-05 0.0000000000000000e+00  3.7260491996981180e-05  5.8198073574512701e-05 0.0000000000000000e+00  2.3953211695338270e-05  7.6259590274502863e-05 0.0000000000000000e+00  3.0800917594901791e-05  7.1660433313936641e-05 0.0000000000000000e+00  3.6990429404998351e-05  5.7440777091038543e-05 0.0000000000000000e+00  2.9237656343355040e-05  7.2331387401611857e-05 0.0000000000000000e+00  2.2352676230879763e-05  4.0437644777959783e-05 0.0000000000000000e+00  1.9262322860076245e-05  3.2126967674109317e-05 0.0000000000000000e+00  1.4112404032667479e-05  3.5287714885584801e-05 0.0000000000000000e+00  1.8751907559770686e-05  3.9583503230001530e-05 0.0000000000000000e+00  6.0958856868127293e-06  9.9573552780458848e-05 0.0000000000000000e+00  9.1290473558688941e-05  1.6698001888568093e-05 0.0000000000000000e+00  5.0697858704267346e-05  2.1537900626790597e-05 0.0000000000000000e+00  6.0429447609552600e-05  2.6547068246288315e-05 0.0000000000000000e+00  8.3633264037531982e-05  1.2867906600798934e-05 0.0000000000000000e+00  6.5111875810601458e-05  3.3921168980530716e-05 0.0000000000000000e+00  4.0910439851454907e-05  3.6980867803932353e-05 0.0000000000000000e+00  7.0846465236935408e-05  2.3873750327933381e-05 0.0000000000000000e+00  4.8698808932700955e-05  2.2916248567699059e-05 0.0000000000000000e+00  2.3778162155703475e-05  4.8332943993051467e-06 0.0000000000000000e+00  1.3598979112075016e-05  1.5555823572853555e-07 0.0000000000000000e+00  2.6759504222873072e-05  2.8716128924913826e-05 0.0000000000000000e+00  3.2165262830756028e-05  3.5016514564232422e-05 0.0000000000000000e+00  3.0142922094095148e-05  2.0063902160436756e-05 0.0000000000000000e+00  5.5807306980341161e-05  8.8012676901416846e-05 0.0000000000000000e+00  5.3073444072101158e-05  8.0161293607756821e-05 0.0000000000000000e+00  3.1535688914618693e-05  4.8230827979800645e-05 0.0000000000000000e+00  1.4323714006539650e-05  3.9624094174527618e-05 0.0000000000000000e+00  2.3880308462815866e-05  3.4725294208010592e-05 0.0000000000000000e+00  4.5287532402299908e-05  2.3706329389254634e-05 0.0000000000000000e+00  5.2315565535579043e-05  4.2133480382355000e-05 0.0000000000000000e+00  5.4716358861327762e-05  3.2720797242249497e-05 0.0000000000000000e+00  6.2993367178440740e-05  1.3892785782947586e-05 0.0000000000000000e+00  5.8242550512222528e-05  3.0361828896509539e-05 0.0000000000000000e+00  5.5057511146768187e-05  2.7687286621762211e-05 0.0000000000000000e+00  4.3051515588515002e-05  1.9090987087985993e-05 0.0000000000000000e+00  1.8226977837149368e-05  7.5885009045033083e-05 0.0000000000000000e+00  2.2116472931040077e-05  8.4936601575494607e-05 0.0000000000000000e+00  9.8370549701959416e-05  9.6953551347414821e-06 0.0000000000000000e+00  9.6774679119240178e-05  1.6852203004850029e-05 0.0000000000000000e+00  6.9212402368467457e-05  1.8590751049812481e-05 0.0000000000000000e+00  6.9368668542193072e-05  1.0515319357988092e-05 0.0000000000000000e+00  2.2217354495237649e-05  6.3032446174711722e-05 0.0000000000000000e+00  2.4545976571665487e-05  5.5158045509730651e-05 0.0000000000000000e+00  9.9017325628170238e-05  1.6156195632229152e-05 0.0000000000000000e+00  7.0246682725574511e-05  4.4863286004693223e-05 0.0000000000000000e+00  6.0585834921720584e-05  5.1481420084814188e-05 0.0000000000000000e+00  2.6971312513281471e-05  8.1753143517652069e-05 0.0000000000000000e+00  2.6546047661305308e-05  9.0267380951674633e-05 0.0000000000000000e+00  2.7409191373686634e-05  2.6234662781583969e-05 0.0000000000000000e+00  2.7061370420634471e-05  4.0911680036014806e-05 0.0000000000000000e+00  2.4131625463447094e-05  3.2447852217289755e-05 0.0000000000000000e+00  3.6549086991838231e-05  4.8175629276107146e-05 0.0000000000000000e+00  8.3400738181718898e-05  2.5497377214544753e-05 0.0000000000000000e+00  8.7835349266971818e-05  3.0903416535813842e-05 0.0000000000000000e+00  2.3890322531164089e-05  8.9539573400179047e-05 0.0000000000000000e+00  2.6254131469776034e-05  5.1046756682456668e-05 0.0000000000000000e+00  3.6056720101640096e-05  4.0258235125877711e-05 0.0000000000000000e+00  4.5343601034660466e-05  3.3124324087908552e-05 0.0000000000000000e+00  3.4884823202530861e-05  7.5581617769165772e-05 0.0000000000000000e+00  3.2238562721654239e-05  7.7048576521379259e-05 0.0000000000000000e+00  1.8814044537296428e-05  8.5260395210188353e-05 0.0000000000000000e+00  2.0484843474896671e-05  8.9453161450867214e-05 0.0000000000000000e+00  4.3385669320842971e-05  4.1584132493597372e-05 0.0000000000000000e+00  3.8199440278623941e-05  5.5508909326441556e-05 0.0000000000000000e+00  4.9413651202854894e-05  2.6750529310846906e-05 0.0000000000000000e+00  5.7248240446279516e-05  1.7576513336717151e-05 0.0000000000000000e+00  1.4063035021718401e-05  2.7818860178052630e-05 0.0000000000000000e+00  2.3824766713418077e-05  2.7128285789923082e-06 0.0000000000000000e+00  1.8524493595592931e-05  1.0803023054679666e-05 0.0000000000000000e+00  3.9011068125585193e-05  8.9798441679822959e-07 0.0000000000000000e+00  2.7568701251789470e-05  3.7243983563215894e-05 0.0000000000000000e+00  2.3218095162406808e-05  2.5635890203769048e-05 0.0000000000000000e+00  8.5575269631936237e-05  4.2772630145380296e-05 0.0000000000000000e+00  6.9555518157865716e-05  3.8935916432166345e-05 0.0000000000000000e+00  4.2191795149238645e-05  7.4507575592367629e-05 0.0000000000000000e+00  4.6074659573747012e-05  8.5922705598183799e-05 0.0000000000000000e+00  1.3387901020483300e-05  6.5461769204425458e-05 0.0000000000000000e+00  3.3241781557657882e-05  5.5373924623857188e-05 0.0000000000000000e+00  2.2393779828227228e-05  1.0168363813128947e-05 0.0000000000000000e+00  1.6513496698742363e-05  1.3448892550401927e-05 0.0000000000000000e+00  1.7243542784959195e-05  2.5401627287704486e-05 0.0000000000000000e+00  2.2910635557568558e-05  3.1286307180912202e-05 0.0000000000000000e+00  2.8119051085059617e-05  3.6101601601089514e-05 0.0000000000000000e+00  3.0409662743042828e-05  9.9496774258246479e-06 0.0000000000000000e+00  4.5681181821617365e-05  3.5870134081275902e-05 0.0000000000000000e+00  3.8551306000590227e-05  4.3832728994923891e-05 0.0000000000000000e+00  2.2702523078899585e-05  3.2773554034056811e-05 0.0000000000000000e+00  4.1870220768836992e-05  2.7792966611911499e-05 0.0000000000000000e+00  3.3557091605039429e-05  3.6932217471565785e-05 0.0000000000000000e+00  8.8858230545100394e-05  2.0327018877605280e-05 0.0000000000000000e+00  7.4505422547956510e-05  2.9857115603450138e-05 0.0000000000000000e+00  5.6889803529222086e-05  5.7677306728940089e-05 0.0000000000000000e+00  5.4331223716262094e-05  5.9132638743596076e-05 0.0000000000000000e+00  5.2195205709932389e-05  3.5462815397202287e-05 0.0000000000000000e+00  4.7816922653910228e-05  3.2851611551042677e-05 0.0000000000000000e+00  4.7701554177829998e-05  3.5924208559035388e-05 0.0000000000000000e+00  2.5766348732039482e-05  2.1985585426160278e-05 0.0000000000000000e+00  2.1422219785192490e-05  8.4954367358534136e-05 0.0000000000000000e+00  1.3508713891250844e-05  1.0332473107953494e-04 0.0000000000000000e+00  7.4708503497003669e-05  8.7288742510808516e-05 0.0000000000000000e+00  6.8361780555516630e-05  7.8636712122770892e-05 0.0000000000000000e+00  3.0651553936258444e-05  3.1431633974865882e-05 0.0000000000000000e+00  2.1271122665227270e-05  4.8470026847765149e-05 0.0000000000000000e+00  5.0068229681572734e-05  1.6961033399851389e-05 0.0000000000000000e+00  5.3210517063547218e-05  2.8279354530898587e-05 0.0000000000000000e+00  8.0589193277124608e-05  7.4302870240181858e-05 0.0000000000000000e+00  7.2887486986456879e-05  7.9828952285674004e-05 0.0000000000000000e+00  1.5501320416506346e-05  2.5808424648106237e-05 0.0000000000000000e+00  1.5666689950653649e-05  2.7836521438171371e-05 0.0000000000000000e+00  2.6632862821424105e-05  9.4033231306082821e-05 0.0000000000000000e+00  3.7078482353364749e-05  9.2403029936599751e-05 0.0000000000000000e+00  4.3192074041637739e-05  8.5295717014458389e-05 0.0000000000000000e+00  3.7350203827715211e-05  9.0026290741126170e-05 0.0000000000000000e+00  6.0963744003837846e-05  1.2958621473002919e-05 0.0000000000000000e+00  4.2349398193042203e-05  3.7658917525014791e-05 0.0000000000000000e+00  4.5946399052100219e-05  4.2068390144672100e-05 0.0000000000000000e+00  4.9083402716068186e-05  3.9857201089012529e-05 0.0000000000000000e+00  4.2851304734573980e-05  4.5786827909799146e-05 0.0000000000000000e+00  2.9137132324102527e-05  3.8661901186590590e-05 0.0000000000000000e+00  2.2019668407821534e-05  3.5220562229795270e-05 0.0000000000000000e+00  4.5567556386043025e-05  2.1493065255150231e-05 0.0000000000000000e+00  4.4402784654258302e-05  2.5972816737423520e-05 0.0000000000000000e+00  5.6009896205512056e-05  4.1126651279371937e-05 0.0000000000000000e+00  4.0207063525095147e-05  2.6151605339117900e-05 0.0000000000000000e+00  2.9949675059880649e-05  6.4833962737709697e-05 0.0000000000000000e+00  2.2594306114638735e-05  5.6665877130637403e-05 0.0000000000000000e+00  2.6913607676427080e-05  5.5552194957609016e-05 0.0000000000000000e+00  2.3728187265986769e-05  6.1023204012266101e-05 0.0000000000000000e+00  3.7370831675696908e-05  1.4342415704239606e-05 0.0000000000000000e+00  2.4952167451065290e-05  2.3166625210046899e-05 0.0000000000000000e+00  3.4291083327906059e-05  4.3679030427355954e-05 0.0000000000000000e+00  4.4421995838097077e-05  4.6378179580334925e-05 0.0000000000000000e+00  3.4366733266216039e-05  2.2020585114657710e-05 0.0000000000000000e+00  7.0744986301055370e-06  3.6798652362348585e-05 0.0000000000000000e+00  1.5060394891571499e-05  1.9367894532461677e-05 0.0000000000000000e+00  4.6372832098586529e-05  4.7918416452696117e-05 0.0000000000000000e+00  5.6450312075149993e-05  2.8473075230613941e-05 0.0000000000000000e+00  3.1186790852236003e-05  4.4677412485086295e-05 0.0000000000000000e+00  3.3699134215988370e-05  5.5004474810950083e-05 0.0000000000000000e+00  3.0206868734935339e-05  4.5365404704121300e-05 0.0000000000000000e+00  1.9000847046394442e-05  3.0654307663915776e-05 0.0000000000000000e+00  8.8160379623552289e-05  4.6320344134681320e-05 0.0000000000000000e+00  8.6261106163094476e-05  5.1958471493006794e-05 0.0000000000000000e+00  8.1570831570485885e-05  4.4513353922073132e-05 0.0000000000000000e+00  7.4500165969285578e-05  7.6715564518997899e-05 0.0000000000000000e+00  5.2602031279821014e-05  9.1519901850437919e-05 0.0000000000000000e+00  2.3966937718449091e-05  6.6800342008739387e-05 0.0000000000000000e+00  2.3717806641811828e-05  4.6146609605960887e-05 0.0000000000000000e+00  6.9092471359472242e-05  1.9007731649106436e-05 0.0000000000000000e+00  9.9054172413030566e-05  6.3325487554488342e-06 0.0000000000000000e+00  4.8982629784556068e-05  3.0608574452949221e-05 0.0000000000000000e+00  3.0571838439642593e-05  2.8233964542620649e-05 0.0000000000000000e+00  4.0011668786566519e-05  2.6206575240923783e-05 0.0000000000000000e+00  3.7729129891697662e-05  2.4557265614662466e-05 0.0000000000000000e+00  6.5326102259896803e-05  6.8486440853036349e-05 0.0000000000000000e+00  7.1518269684881579e-05  6.6523041676672313e-05 0.0000000000000000e+00  2.0995173894213439e-05  3.4644013849914653e-05 0.0000000000000000e+00  5.6293980674013056e-05  3.3482402700159828e-05 0.0000000000000000e+00  6.3015037972101555e-06  6.2615827840277228e-05 0.0000000000000000e+00  1.5028574228190045e-05  5.5220154911303555e-05 0.0000000000000000e+00  8.0842836268338428e-05  1.7423959424008599e-05 0.0000000000000000e+00  8.4950799311570523e-05  1.1901234578578140e-05 0.0000000000000000e+00  9.2561559597284035e-05  1.6379150525400030e-05 0.0000000000000000e+00  6.3703424085276725e-05  1.8813731441828970e-06 0.0000000000000000e+00  5.3498599797970543e-05  1.5104593410630741e-05 0.0000000000000000e+00  4.7843348652918306e-05  3.2189939576723194e-05 0.0000000000000000e+00  6.3677210139041578e-05  1.7232902365914219e-05 0.0000000000000000e+00  8.0431528361583234e-05  6.8104101834307463e-05 0.0000000000000000e+00  3.1682977481002748e-05  7.3880861781509954e-05 0.0000000000000000e+00  3.4882788416109277e-05  6.4984985000578484e-05 0.0000000000000000e+00  8.9761394575913958e-05  1.7106120742045894e-05 0.0000000000000000e+00  9.0498950875475729e-05  2.8997235367719886e-05 0.0000000000000000e+00  1.1756762608772497e-04  3.5721762812327444e-06 0.0000000000000000e+00  1.9452776517424674e-05  9.9249288209511905e-05 0.0000000000000000e+00  2.6573663175980509e-06  1.0845782526935307e-04 0.0000000000000000e+00  3.9194572843669802e-05  3.7419365498015014e-05 0.0000000000000000e+00  2.1252451717051614e-05  4.3864962362225783e-05 0.0000000000000000e+00  2.3401678622419555e-05  4.8272712652095261e-06 0.0000000000000000e+00  2.3534916452206338e-05  2.4756399056993455e-05 0.0000000000000000e+00  3.7679155215192264e-05  1.6565636212020368e-05 0.0000000000000000e+00  2.4650310856032256e-05  5.3471925675149539e-05 0.0000000000000000e+00  1.5805537262909097e-05  5.4833583315940291e-05 0.0000000000000000e+00  4.3712029772497340e-06  2.1828345905523258e-05 0.0000000000000000e+00  1.5499286276522807e-05  4.1608649839943513e-05 0.0000000000000000e+00  1.4160083091509903e-05  1.0283281335292246e-05 0.0000000000000000e+00  5.2559183289083139e-05  4.7856468302054569e-05 0.0000000000000000e+00  5.6808824900017084e-05  4.8020337375354525e-05 0.0000000000000000e+00  2.6394693108706766e-05  -3.7128065386288886e-06 0.0000000000000000e+00  2.6945492668870754e-05  -2.2109037982887369e-06 0.0000000000000000e+00  2.5098936206224919e-05  5.1636761759843421e-05 0.0000000000000000e+00  7.4429013667192854e-05  5.6682985944681872e-05 0.0000000000000000e+00  6.7752630172393473e-05  6.5798003419718429e-05 0.0000000000000000e+00  2.9036745263131214e-05  2.2947783583221355e-05 0.0000000000000000e+00  1.3391067073487675e-05  2.1642489830318522e-05 0.0000000000000000e+00  2.7144235079361945e-05  2.4967772323161160e-05 0.0000000000000000e+00  4.3020400638059076e-05  1.5841701899283683e-05 0.0000000000000000e+00  2.1081298453215806e-05  3.5883525673318827e-05 0.0000000000000000e+00  9.2364077784537897e-06  2.9426160462686686e-05 0.0000000000000000e+00  3.3813021479763521e-05  4.2485094674765570e-05 0.0000000000000000e+00  2.1380968874246754e-05  3.9259741421698339e-05 0.0000000000000000e+00  2.5173349274741109e-05  7.1273611183950435e-05 0.0000000000000000e+00  2.3059492272930922e-05  7.3141037366923313e-05 0.0000000000000000e+00  2.1684602601217946e-05  4.7478099776037681e-05 0.0000000000000000e+00  2.3106293371982430e-05  6.0927765901576557e-05 0.0000000000000000e+00  3.0092863742898530e-05  9.5106154736741006e-05 0.0000000000000000e+00  2.5406133394466395e-05  1.0031482469445909e-04 0.0000000000000000e+00  9.8