<?xml version="1.0"?>
<VTKFile type="UnstructuredGrid"  version="0.1"  >
<UnstructuredGrid>
<Piece  NumberOfPoints="1385" NumberOfCells="2640">
<Points>
<DataArray  type="Float64"  NumberOfComponents="3"  format="ascii">0 0 0  1 0 0  1 1 0  0 1 0  0.5 0 0  1 0.5 0  0.5 1 0  0 0.5 0  0.5 0.5 0  0 0.25 0  0.25 0 0  0.25 1 0  0 0.75 0  1 0.25 0  0.75 0 0  1 0.75 0  0.75 1 0  0.7083333333333333 0.2916666666666667 0  0.2916666666666666 0.7083333333333334 0  0.375 0.25 0  0.75 0.625 0  0.2569444444444444 0.4652777777777778 0  0.5366379310344828 0.7535919540229885 0  0.1875 0.1875 0  0.8125 0.8125 0  0.869047619047619 0.375 0  0.1450441919191919 0.6052714646464646 0  0.375 0.8690476190476191 0  0.5526960784313725 0.1825980392156862 0  0.8385416666666666 0.1614583333333334 0  0.1614583333333333 0.8385416666666667 0  0.6736111111111112 0.4652777777777778 0  0.1367521367521368 0.3477564102564102 0  0.6570970491253563 0.8648656830417855 0  0.5102479397556124 0.3386260301221938 0  0.3654513888888889 0.5737847222222222 0  0.6929750044954185 0.1362784921584263 0  0.388576102743835 0.411911725237599 0  0.6091269841269842 0.5942460317460317 0  0.875 0.6875 0  0.427278890279516 0.119889445139758 0  0.8544456845238095 0.5213913690476191 0  0.125 0 0  0 0.125 0  1 0.875 0  0.875 1 0  0.1280008648150532 0.4769292340226777 0  0.2695382451711197 0.3321750950221553 0  0.7031567235715964 0.7447810921428012 0  0.625 0 0  0.375 0 0  0.125 1 0  0.875 0 0  0 0.375 0  0 0.625 0  1 0.375 0  0.375 1 0  1 0.125 0  0 0.875 0  0.625 1 0  1 0.625 0  0.2979288363930608 0.1201429454643536 0  0.410919540229885 0.7484605911330049 0  0.5325041980395562 0.878905151526474 0  0.4831670727569156 0.6331060043826487 0  0.1735997378973042 0.7204747378973043 0  0.2534919507575758 0.5772372159090909 0  0.2633928571428572 0.8876488095238095 0  0.8199404761904761 0.2730654761904762 0  0.75830270586982 0.3919383189517417 0  0.5750282248382511 0.4237522353023667 0  0.6008360210023379 0.2794828358598495 0  0.08163442644334186 0.6821295860397322 0  0.08333333333333333 0.1875 0  0.2028380815996574 0.08844602719988583 0  0.2766521142611967 0.2325436572164097 0  0.90625 0.78125 0  0.890625 0.890625 0  0.7545696325008384 0.8973565441669461 0  0.5625 0.08086590340834317 0  0.09077380952380953 0.09077380952380952 0  0.4610923478694773 0.209034015149656 0  0.7542527598351648 0.5248380520595106 0  0.6459235536037465 0.3619913988405765 0  0.7560381768882634 0.20506142233852 0  0.07073252688172042 0.8125 0  0.0924753097241701 0.9078102849914793 0  0.9292674731182795 0.1875 0  0.9075246902758297 0.09218971500852073 0  0.8125 0.07073252688172045 0  0.2400955776842301 0.7869705776842302 0  0.9121050213379069 0.2781978201831695 0  0.7916878157143976 0.7239689078571988 0  0.9345238095238094 0.4375 0  0.4375 0.9345238095238095 0  0.3725616989755203 0.6651895248862173 0  0.06536271996350887 0.5625 0  0.9348362560379583 0.5625 0  0.456646798987055 0.8277247094351965 0  0.1875 0.9355758238725954 0  0.6169761231634859 0.6939779188977889 0  0.6226854751147515 0.7827911461419014 0  0.3305695598137626 0.7901697871282585 0  0.5865305325818898 0.5101085479043448 0  0.6622701297028378 0.2177663989757395 0  0.1354166666666667 0.2591702279202279 0  0 0.3125 0  0.2094429575680048 0.3936361846162499 0  0.836666296419157 0.607917407161686 0  0.6875 1 0  0.214261555450504 0.6492551722020035 0  0 0.4375 0  0.07731537126068377 0.40625 0  0.3427725432967068 0.4879566233699599 0  0.3550792513951871 0.3331953632609953 0  0.4462473953896857 0.2887834789342508 0  0.4747801464819794 0.417386052030127 0  0.8229836475148948 0.4443292349237342 0  0.7322605135514757 0.8199240278289671 0  0.6756431877205955 0.5468989748126787 0  0.1968419507215863 0.5194573482612496 0  0.3285590277777778 0.9345238095238095 0  0.8125 1 0  0.4198917601920009 0.5134893045331258 0  0.5232405503206691 0.2595791787880157 0  1 0.9375 0  0.1987510870015086 0.3025185951894431 0  0.5625 1 0  0.6005390654136388 0.9228110509230952 0  0.6411254848194414 0.07704872765442942 0  0.3357233162523242 0.1855113224530532 0  0.6730653396610877 0.6393887462324165 0  0.310966987234063 0.6240019765311626 0  0.7368737836204349 0.07457755202327881 0  0.6192316414418171 0.1485238406378594 0  0.5432429670607106 0.678552703844006 0  0.4754371679695679 0.7103946803120881 0  0.07501324890749672 0.3043839897335739 0  0.5358146975860403 0.5688321463205916 0  0.3115271739500156 0.3982137365971444 0  0.3625191397122174 0.0767854603650549 0  0.5024029442563831 0.1264128223758444 0  0.4375 0 0  0.4699946908887376 0.06379961173775725 0  0.9375 0.71875 0  0.9272105898044465 0.635671179608893 0  0.9375 1 0  0.6690971819568612 0.9331530898202766 0  0.1073454944778885 0.7499206387638554 0  0.8699082999280406 0.2232403652524313 0  0.5773118091863964 0.3548027349159383 0  0.1354166666666667 0.1428571428571428 0  0.3125 0 0  0.8241684193077341 0.9257452995055244 0  0.4352314948354036 0.3586940847489378 0  0.4351301473778832 0.5819726043539077 0  0.8073232928518163 0.3419398170341962 0  0.7775949246947366 0.1298519409204575 0  0.6875 0 0  0.7413513991851041 0.457933324954483 0  0.939453125 0.841796875 0  0.5630355154606987 0.8171875156478349 0  0.9345238095238095 0.3461466592368577 0  0.9375 0 0  1 0.0625 0  0.0625 1 0  0 0.9375 0  0.06552178593177167 0.4969053669623468 0  0.1424866619031703 0.4130277709291224 0  0.1275287182444726 0.5422946908002588 0  0.2637686595586339 0.06413888464529549 0  0.2524263535491086 0.1697437503243817 0  0.7367218397988525 0.6888573970660841 0  0.0625 0 0  0 0.0625 0  0.8463594539285995 0.7578283617857982 0  0.3128751192101563 0.2851997374369947 0  0.4015281788351144 0.1806421385113692 0  0.1910251795116588 0.4553332197174453 0  0.287797471442006 0.5222621440543902 0  0.3962628745986055 0.8097380085535307 0  0.3505895299554843 0.7304878890838692 0  0.5019151500495276 0.9356042615328103 0  0.9374389419410134 0.4999931039076005 0  0.3125 1 0  0.1875 1 0  1 0.5625 0  0.4375 1 0  1 0.3125 0  1 0.4375 0  0.8125 0 0  1 0.1875 0  0.5625 0 0  0.1875 0 0  0 0.1875 0  0 0.5625 0  0 0.6875 0  0 0.8125 0  1 0.6875 0  1 0.8125 0  0.8021696218581627 0.6612893947866073 0  0.06154922295426143 0.6239401126946708 0  0.9359375 0.9359375 0  0.4666158024849896 0.7691515918155014 0  0.2318201265217025 0.7064974250277525 0  0.1565954253579966 0.6635489312486841 0  0.1598132503680848 0.7787147500325552 0  0.3146529991605639 0.8510876378205265 0  0.1461873209418733 0.05982804528877814 0  0.06109554988524315 0.2446551776247686 0  0.8054950308560754 0.5564226538848541 0  0.470541749491976 0.8853316336952531 0  0.6948472567465137 0.4042308563372457 0  0.8802828472348889 0.4658893256343853 0  0.6788075634946739 0.7974194205806069 0  0.2155048659603867 0.2428201584940968 0  0.8131223143423806 0.2132171049028394 0  0.4330798005432235 0.6671274900735726 0  0.6015279126162613 0.2187368078743274 0  0.8061636571464289 0.8703766630361714 0  0.7008230445061776 0.3478568388444072 0  0.8638466246958771 0.3147095987735538 0  0.204801534004265 0.8789209409594009 0  0.2449006736431132 0.9424182882803838 0  0.7611268409371427 0.2643056884799992 0  0.7552800864046191 0.7678006649959446 0  0.5983639638906616 0.864113435029236 0  0.1956559506814437 0.577281203577426 0  0.3527670268164207 0.1320469097565204 0  0.7530364577483248 0.3262386077083089 0  0.4535919187979363 0.4690107087451527 0  0.8824869791666666 0.8336588541666666 0  0.8814453125 0.9451171875 0  0.5582987942628019 0.622421666543858 0  0.6817532446064828 0.6939001801354731 0  0.3830295138888889 0.9450968952922078 0  0.4140603937012541 0.05211333372716105 0  0.5535864501303013 0.3060591985391672 0  0.6560130086346878 0.2729726562211558 0  0.890203140221684 0.5948314305427268 0  0.7043857725999024 0.593980890020804 0  0.5105843922695152 0.8016828014338627 0  0.05365910753708378 0.7315110031682004 0  0.616904573672261 0.4621186633436136 0  0.5338511646455415 0.387875898899613 0  0.5231769258947843 0.4477682463140762 0  0.650302973237622 0.7370722302085519 0  0.3927483139621257 0.4662414504529014 0  0.8034595960585199 0.4972538342758211 0  0.7738337841682438 0.9496376207663251 0  0.7193737507158268 0.954685447650112 0  0.482525916480686 0.5528257169991676 0  0.2533501157346781 0.2809495420003238 0  0.3118487924482243 0.5702930126570319 0  0.6257598847669529 0.4104163315430518 0  0.1354166666666667 0.1955605158730158 0  0.04166666666666666 0.15625 0  0.3956448985530264 0.6174149462065157 0  0.8102897701818546 0.3938784238208349 0  0.2641154190013625 0.8344469561943118 0  0.642852220770013 0.5068794586563659 0  0.05271458179508221 0.355846947336007 0  0.7021551360070266 0.8921457280225779 0  0.5692125776683765 0.1328512638850284 0  0.5206162811937602 0.04865158770992991 0  0.6001838442201555 0.04540556991297563 0  0.2597716608242787 0.4118346398477178 0  0.4040584599473195 0.3179589136784675 0  0.1480337679295207 0.8941560631483065 0  0.1344356707112281 0.9466251177415842 0  0.7114696411829317 0.4983917389078826 0  0.7585704698442475 0.5751926345944629 0  0.2189131956390871 0.04022068508159698 0  0.2476935455192043 0.1123642267635843 0  0.185995005654517 0.1365524537205238 0  0.6223414373308711 0.643380839165121 0  0.5732602596637543 0.7190051747306219 0  0.268358222364537 0.6586246524467934 0  0.3265879848129173 0.2369791782191225 0  0.1267095595787346 0.7034787238999181 0  0.1115202922226038 0.6421997933884982 0  0.3128688392940203 0.07260997451790079 0  0.550724900485678 0.9253360991633187 0  0.7142608810459105 0.2384904702214873 0  0.7045869185243887 0.1871826897887429 0  0.890625 0.734375 0  0.953125 0.765625 0  0.2111812642821677 0.8286209446459138 0  0.9590293078204457 0.09375 0  0.953431269039847 0.1435719386408004 0  0.04097069217955424 0.90625 0  0.04656873096015299 0.8564280613591996 0  0.1078743037981226 0.8541621766048062 0  0.8921256962018773 0.1458378233951939 0  0.8521576979194619 0.1084496634207678 0  0.8655663982740958 0.05464346096571447 0  0.04005659640905543 0.09375 0  0.1001448316533417 0.04246776244228261 
[...]
<CellData  Vectors="f_8394-1"> 
<DataArray  type="Float64"  Name="f_8394-1"  NumberOfComponents="3" format="ascii">1.6893324435427885e-04  1.4122572463164985e-04 0.0000000000000000e+00  3.7560299432270956e-05  6.7104455624172858e-05 0.0000000000000000e+00  5.2246236787336694e-05  6.1588381854786554e-05 0.0000000000000000e+00  2.3388902449724179e-05  2.7358806627344486e-05 0.0000000000000000e+00  7.4598877818495457e-05  1.4560897097525097e-04 0.0000000000000000e+00  5.9265044225608699e-05  4.9121093980959089e-05 0.0000000000000000e+00  3.6238585247592800e-05  4.6229650513663511e-04 0.0000000000000000e+00  3.5268516758169603e-05  6.5779440892477735e-04 0.0000000000000000e+00  5.6326676312651325e-04  2.0934705541948073e-05 0.0000000000000000e+00  2.5429133973185357e-04  1.1932528384028011e-05 0.0000000000000000e+00  1.0327545526139845e-04  3.8469860749570734e-05 0.0000000000000000e+00  4.0137400662705657e-04  4.8031688901287368e-04 0.0000000000000000e+00  3.1627814478024164e-04  5.9210866827771002e-04 0.0000000000000000e+00  4.6488432559860558e-04  3.3945333326775278e-04 0.0000000000000000e+00  5.8087597644326512e-04  2.7063979658410855e-04 0.0000000000000000e+00  4.9539640648471627e-04  1.8119519028682424e-04 0.0000000000000000e+00  3.4159008525347037e-04  3.7968773194671740e-04 0.0000000000000000e+00  1.5013931607760241e-04  1.6864117931615183e-04 0.0000000000000000e+00  8.0331820647882007e-05  4.1138149755349027e-04 0.0000000000000000e+00  2.3638049451663726e-04  7.3471443680790893e-05 0.0000000000000000e+00  2.5308911852216459e-04  4.4395095968198196e-05 0.0000000000000000e+00  4.5812344430423870e-04  1.6999934709479943e-04 0.0000000000000000e+00  5.0363930561238778e-04  1.6127818217262583e-04 0.0000000000000000e+00  6.1954331745465175e-05  4.5328369863931016e-04 0.0000000000000000e+00  8.5417489947671015e-05  2.1897475869306197e-04 0.0000000000000000e+00  1.0712011328049446e-04  5.2985241902058725e-04 0.0000000000000000e+00  7.5380123019501271e-06  4.2050611394307840e-05 0.0000000000000000e+00  4.0844416950140818e-04  4.1067205788133277e-05 0.0000000000000000e+00  3.6176171932950476e-05  6.4534547589949133e-04 0.0000000000000000e+00  2.4276521112113155e-04  2.5082205775733494e-05 0.0000000000000000e+00  5.5222992028499285e-04  7.7425166343828358e-05 0.0000000000000000e+00  2.2243011866963808e-04  3.0908517448243627e-04 0.0000000000000000e+00  2.3413090912971607e-04  1.1418462812987472e-04 0.0000000000000000e+00  3.3855873332594465e-04  5.3896324507013091e-04 0.0000000000000000e+00  1.1111614353242497e-04  4.2020232213061362e-05 0.0000000000000000e+00  1.3777419651276606e-04  8.3975634456570324e-05 0.0000000000000000e+00  1.6489339229082219e-04  2.2691137711745030e-04 0.0000000000000000e+00  8.5098196955724561e-05  4.7392937448535288e-04 0.0000000000000000e+00  3.5797542827610036e-04  3.0326381691463023e-05 0.0000000000000000e+00  1.4462241703755438e-04  1.4150617931082656e-04 0.0000000000000000e+00  1.3917471475075808e-04  1.3440302973458156e-04 0.0000000000000000e+00  2.4652076196266318e-04  1.4170133624825666e-04 0.0000000000000000e+00  5.3295670580821668e-04  2.4597625743552208e-04 0.0000000000000000e+00  5.8241322040753450e-04  2.5805804634665040e-04 0.0000000000000000e+00  8.5964690654064002e-05  1.7423381419255903e-05 0.0000000000000000e+00  6.9139077735976592e-04  3.4059506291108114e-04 0.0000000000000000e+00  4.9159786626863482e-04  2.4703270174617137e-04 0.0000000000000000e+00  5.0143471619782606e-05  3.8226737362134299e-05 0.0000000000000000e+00  6.7287243606928737e-04  5.0185439215910438e-04 0.0000000000000000e+00  6.4166784400631575e-04  4.0039062594699864e-04 0.0000000000000000e+00  5.5592193280006399e-04  5.2541722206511687e-04 0.0000000000000000e+00  6.1934176062723267e-04  5.9390735994584902e-04 0.0000000000000000e+00  7.0548742714252489e-05  2.5274163802650875e-04 0.0000000000000000e+00  1.3121206307407858e-04  7.7837229449284327e-05 0.0000000000000000e+00  7.1407330424316180e-05  1.4457035652145088e-04 0.0000000000000000e+00  4.1825378697867715e-04  4.2187631508468741e-04 0.0000000000000000e+00  3.3103027676828023e-04  3.0165352913077379e-04 0.0000000000000000e+00  3.1351943189175983e-04  5.3554623826245715e-05 0.0000000000000000e+00  1.2205610042068231e-04  2.5641019464616941e-05 0.0000000000000000e+00  2.7885350819626511e-05  5.8409010583827217e-04 0.0000000000000000e+00  3.1954035210471494e-05  5.7056715763821250e-04 0.0000000000000000e+00  5.2265942401749014e-04  3.6298196203057772e-05 0.0000000000000000e+00  3.0162269889182760e-05  1.1230144831594023e-04 0.0000000000000000e+00  3.4817794264333600e-05  2.6980993208943345e-04 0.0000000000000000e+00  4.2152625201706777e-05  2.9306262643255114e-04 0.0000000000000000e+00  4.8497086039423138e-04  9.7862236387746487e-05 0.0000000000000000e+00  6.6629282043017334e-05  4.4180204134210832e-04 0.0000000000000000e+00  6.1063842592980709e-04  2.0483054188220805e-05 0.0000000000000000e+00  3.0140053304503900e-05  6.4141792034448826e-04 0.0000000000000000e+00  2.1602871056044143e-04  6.8580499468364473e-04 0.0000000000000000e+00  2.3444820698261399e-04  6.3419374949187093e-04 0.0000000000000000e+00  5.5902357269835051e-04  3.1659487196771593e-04 0.0000000000000000e+00  6.2264790156613830e-05  8.1238862971717791e-05 0.0000000000000000e+00  1.6419627156119958e-04  2.5914654749325080e-04 0.0000000000000000e+00  2.7538894089763210e-04  3.7504364061690163e-04 0.0000000000000000e+00  1.5364874445896790e-04  5.0842567857709302e-04 0.0000000000000000e+00  2.2408453372696575e-04  5.1439698677198040e-04 0.0000000000000000e+00  2.1550950462088180e-04  3.4903130852519576e-04 0.0000000000000000e+00  1.6768464028127966e-04  4.3876815911226641e-04 0.0000000000000000e+00  2.7024943152893950e-05  3.4549624795941308e-04 0.0000000000000000e+00  2.5585095024252247e-05  2.7281376588863610e-04 0.0000000000000000e+00  2.8478941189716923e-05  2.4358122382024669e-04 0.0000000000000000e+00  6.9130436480373719e-05  2.0674417602899251e-04 0.0000000000000000e+00  4.9291667440324227e-05  6.6635761434768982e-04 0.0000000000000000e+00  5.7894656745260790e-04  7.4261109517719003e-05 0.0000000000000000e+00  3.7757616961124461e-04  4.7042227628497629e-05 0.0000000000000000e+00  3.5909937792531169e-04  1.2517080777576744e-04 0.0000000000000000e+00  5.5020823127629624e-04  1.0542442929852130e-04 0.0000000000000000e+00  3.5340511976826155e-04  1.8268377803215097e-04 0.0000000000000000e+00  2.2031391534359072e-04  1.5537369630672456e-04 0.0000000000000000e+00  3.0891051648173143e-04  4.4241240163569952e-05 0.0000000000000000e+00  2.8566330408078374e-04  8.5657120878778338e-05 0.0000000000000000e+00  2.3675993840433875e-05  4.3099029141813523e-05 0.0000000000000000e+00  3.1925246737038140e-05  8.2754526518294724e-06 0.0000000000000000e+00  5.6832735061985713e-05  5.8526848547978656e-05 0.0000000000000000e+00  8.7655471518548246e-05  5.2787916391977399e-05 0.0000000000000000e+00  1.1444101034019005e-04  3.3819428687419428e-05 0.0000000000000000e+00  4.2660591989555436e-04  6.8215431993340347e-04 0.0000000000000000e+00  4.1521543619771995e-04  6.2613419489683465e-04 0.0000000000000000e+00  1.9717469886637343e-04  5.3030584367477360e-05 0.0000000000000000e+00  1.6127416430049147e-04  4.2340143062854651e-05 0.0000000000000000e+00  1.7557024683487836e-04  8.3466757082256522e-05 0.0000000000000000e+00  1.6742096487114960e-04  5.6389569755649796e-05 0.0000000000000000e+00  3.4790482247598858e-04  2.7121550196494541e-04 0.0000000000000000e+00  3.3771246704298637e-04  2.2893188469230808e-04 0.0000000000000000e+00  4.4594377726986590e-04  1.1894587941213870e-04 0.0000000000000000e+00  3.4675261243589483e-04  1.5924873168038310e-04 0.0000000000000000e+00  3.8496498570470548e-04  5.7928985071985420e-05 0.0000000000000000e+00  3.2674031449385962e-04  3.2601613033105976e-05 0.0000000000000000e+00  2.1470859969066471e-05  5.5496505691867001e-04 0.0000000000000000e+00  3.1837154726587127e-05  5.6034828832055321e-04 0.0000000000000000e+00  6.4165956208064347e-04  2.1922883547736193e-05 0.0000000000000000e+00  6.1587054748962462e-04  4.8161037434916361e-05 0.0000000000000000e+00  4.7725400042029318e-04  2.1748466595216561e-05 0.0000000000000000e+00  4.5908081465060484e-04  1.2100673937381570e-05 0.0000000000000000e+00  4.1597266079652982e-05  4.6087548465837899e-04 0.0000000000000000e+00  7.7747522199447230e-05  3.3880401006000752e-04 0.0000000000000000e+00  6.3390491993304556e-04  7.2563766913747382e-05 0.0000000000000000e+00  5.2451387049655342e-04  3.4615762262024745e-04 0.0000000000000000e+00  4.4944878715385856e-04  4.0147132824207656e-04 0.0000000000000000e+00  1.9507413348122132e-04  5.4822503313448057e-04 0.0000000000000000e+00  1.9151400499858048e-04  6.4050115563630302e-04 0.0000000000000000e+00  6.3268720803836734e-05  2.4717739854463735e-04 0.0000000000000000e+00  1.1567464696668020e-04  2.9471302057903148e-04 0.0000000000000000e+00  2.5164299799532630e-05  2.2616140045745881e-04 0.0000000000000000e+00  4.2141162945582715e-05  2.3191449013727677e-04 0.0000000000000000e+00  5.9307214233826177e-04  1.9092359779079897e-04 0.0000000000000000e+00  6.3759882375525006e-04  2.3306525924646473e-04 0.0000000000000000e+00  1.5792559933505942e-04  5.9909537703256252e-04 0.0000000000000000e+00  1.5910404881074917e-04  3.4866556354166349e-04 0.0000000000000000e+00  2.4562530472071158e-04  2.7561525771674464e-04 0.0000000000000000e+00  2.8008200852471183e-04  2.5578356097554237e-04 0.0000000000000000e+00  2.6045380911567589e-04  5.4643931585398524e-04 0.0000000000000000e+00  2.3312544568583103e-04  5.3347167973469473e-04 0.0000000000000000e+00  1.2050598639507653e-04  5.3757678385998626e-04 0.0000000000000000e+00  1.4492059073422823e-04  5.9990080449313400e-04 0.0000000000000000e+00  3.1597302665114580e-04  2.9386655911981977e-04 0.0000000000000000e+00  2.0545678680776989e-04  3.1372103732658896e-04 0.0000000000000000e+00  3.5818256660167538e-04  4.6683170138448381e-05 0.0000000000000000e+00  3.8941045595817440e-04  6.5460650365550273e-05 0.0000000000000000e+00  3.9367304569895723e-05  5.9739272703610621e-05 0.0000000000000000e+00  3.3662040163050048e-05  3.7544275837273546e-05 0.0000000000000000e+00  2.0872617161084586e-05  8.5170014352238811e-05 0.0000000000000000e+00  3.8653073932384904e-05  5.5750425172010127e-05 0.0000000000000000e+00  4.0706952504122437e-05  2.1296451611201055e-04 0.0000000000000000e+00  5.2486718870229252e-05  1.3302942404354610e-04 0.0000000000000000e+00  6.3233372690703891e-04  3.2326636974600834e-04 0.0000000000000000e+00  4.9203639520802608e-04  2.8610780422467114e-04 0.0000000000000000e+00  3.1657119286500178e-04  5.4821645058710866e-04 0.0000000000000000e+00  3.5120239584591535e-04  6.4498923358935684e-04 0.0000000000000000e+00  5.1289951161899795e-05  3.7575064223730695e-04 0.0000000000000000e+00  6.3732070222918117e-05  3.2268661432805976e-04 0.0000000000000000e+00  2.2269158331238538e-05  1.4831250176465212e-04 0.0000000000000000e+00  1.7317617367866831e-05  9.1844052367618607e-05 0.0000000000000000e+00  2.6699558255192510e-05  1.2733480161714178e-04 0.0000000000000000e+00  8.3003482154681054e-05  2.0992639949511850e-04 0.0000000000000000e+00  1.0527984514463294e-04  1.6491731118071267e-04 0.0000000000000000e+00  1.8770036570108384e-04  4.3677530463863470e-05 0.0000000000000000e+00  1.8113043423169617e-04  1.0801210423445867e-04 0.0000000000000000e+00  1.2927524156686768e-04  1.7694793795008235e-04 0.0000000000000000e+00  1.1980268034160041e-04  9.9427795941949674e-05 0.0000000000000000e+00  2.2372125109331080e-04  1.3528271244047293e-04 0.0000000000000000e+00  2.0251959447261687e-04  2.0933210340015075e-04 0.0000000000000000e+00  5.8491675066280979e-04  1.5200502258357141e-04 0.0000000000000000e+00  4.7839123334842955e-04  1.8151551225753046e-04 0.0000000000000000e+00  4.4128715176912809e-04  4.3999632720671410e-04 0.0000000000000000e+00  4.1083627193405327e-04  4.5769575249731808e-04 0.0000000000000000e+00  3.5796462362868727e-04  2.3979931176240399e-04 0.0000000000000000e+00  2.8199410397462257e-04  1.7305357927754889e-04 0.0000000000000000e+00  5.9357872654589521e-05  1.6887828854737752e-04 0.0000000000000000e+00  5.6847276962390372e-05  1.1276966710771480e-04 0.0000000000000000e+00  1.1875471781055333e-04  5.6731174176898405e-04 0.0000000000000000e+00  8.5336910918944981e-05  7.0069305033686744e-04 0.0000000000000000e+00  5.8904782667700646e-04  7.2610696007637335e-04 0.0000000000000000e+00  5.5538341182889543e-04  6.4681060993366883e-04 0.0000000000000000e+00  1.8800387220350935e-04  2.1821943741184578e-04 0.0000000000000000e+00  1.5969134661932973e-04  2.7364395166469736e-04 0.0000000000000000e+00  3.4549018926290987e-04  6.2073224110995861e-05 0.0000000000000000e+00  2.2952550129293789e-04  7.4903301367878946e-05 0.0000000000000000e+00  6.5075160596213938e-04  6.2469286055921920e-04 0.0000000000000000e+00  6.0794714798549719e-04  6.2910536675495109e-04 0.0000000000000000e+00  3.6789060440680635e-05  9.6785852437833539e-05 0.0000000000000000e+00  2.7523281732558287e-05  1.1290323383463801e-04 0.0000000000000000e+00  1.9609506426631400e-04  6.7962986087145307e-04 0.0000000000000000e+00  2.7815086792008754e-04  6.8606410262172807e-04 0.0000000000000000e+00  3.2470502225341244e-04  6.3529669089051693e-04 0.0000000000000000e+00  2.8029001352895144e-04  6.6567643425491819e-04 0.0000000000000000e+00  4.0990521764054395e-04  2.2103059405280948e-05 0.0000000000000000e+00  1.3610784907957201e-04  5.7049935417996441e-05 0.0000000000000000e+00  1.4378559827409916e-04  5.7706399166090080e-05 0.0000000000000000e+00  3.4260832812081724e-04  2.9240482492208736e-04 0.0000000000000000e+00  3.3297121484690491e-04  3.2928623454617624e-04 0.0000000000000000e+00  8.2231500392531833e-05  2.8834537783964446e-04 0.0000000000000000e+00  6.7287953903775435e-05  2.8384687541943012e-04 0.0000000000000000e+00  3.6433398562648884e-04  2.1277447307741817e-05 0.0000000000000000e+00  3.6488914525709321e-04  3.0438906343960894e-05 0.0000000000000000e+00  3.1514870982835160e-04  4.9577669195561788e-05 0.0000000000000000e+00  3.0386299102002869e-04  4.6706665961976682e-05 0.0000000000000000e+00  1.7948077711972316e-04  4.3288541835530687e-04 0.0000000000000000e+00  1.6627481393761081e-04  3.3278951859712824e-04 0.0000000000000000e+00  1.4386211934850981e-04  3.2872492340493327e-04 0.0000000000000000e+00  1.6509897520274147e-04  3.7149580640269360e-04 0.0000000000000000e+00  3.9786817261602632e-05  4.5761563136182899e-05 0.0000000000000000e+00  3.8162624389358615e-05  1.0158566655321963e-04 0.0000000000000000e+00  2.5376945895251628e-04  2.3717509485876167e-04 0.0000000000000000e+00  2.8382520596345351e-04  2.4375633265202165e-04 0.0000000000000000e+00  1.3080891533335227e-04  1.4034209081808461e-04 0.0000000000000000e+00  5.0919764743714648e-05  1.6842299446580516e-04 0.0000000000000000e+00  1.3689959301792619e-04  1.9150400757898832e-05 0.0000000000000000e+00  2.0003266849453634e-04  5.3308962803968488e-05 0.0000000000000000e+00  2.0588182939142524e-04  3.6475721031636556e-05 0.0000000000000000e+00  1.6712416940629649e-04  4.7226750188499962e-05 0.0000000000000000e+00  1.2171390546750690e-04  5.9165969163307523e-05 0.0000000000000000e+00  1.6278156310317525e-04  4.5222031465914335e-05 0.0000000000000000e+00  1.3464088285779335e-04  3.0554417461559014e-05 0.0000000000000000e+00  6.5624363218152364e-04  3.4964628525103206e-04 0.0000000000000000e+00  6.5661342310541909e-04  4.0612310850055835e-04 0.0000000000000000e+00  6.0788879897600678e-04  3.4010730063007197e-04 0.0000000000000000e+00  6.2937559930751957e-04  6.3409851603098686e-04 0.0000000000000000e+00  4.0083350447756515e-04  7.0027068348109335e-04 0.0000000000000000e+00  2.7416142433840695e-05  4.1950523782682955e-04 0.0000000000000000e+00  2.7449786266740773e-05  4.2526325688787680e-04 0.0000000000000000e+00  5.1413350258103208e-04  5.9578768762236322e-05 0.0000000000000000e+00  6.3733309946891034e-04  4.7701061832193902e-05 0.0000000000000000e+00  2.6148615977168168e-04  1.5631694140563998e-04 0.0000000000000000e+00  1.5506443730650818e-04  1.1894489137180703e-04 0.0000000000000000e+00  5.5899176167229257e-05  3.2439895738592131e-05 0.0000000000000000e+00  3.7750073647500773e-05  4.8796207710187224e-05 0.0000000000000000e+00  5.1596864126941572e-04  5.3502418070134857e-04 0.0000000000000000e+00  5.8930091111695484e-04  5.4091471805425438e-04 0.0000000000000000e+00  1.1948209063110988e-04  9.5520149189543010e-05 0.0000000000000000e+00  1.7360246685860594e-04  8.6705045367974030e-05 0.0000000000000000e+00  8.5426022047639734e-05  3.9498124540709274e-04 0.0000000000000000e+00  1.0110503453516367e-04  2.8613120847424320e-04 0.0000000000000000e+00  4.9889618803449951e-04  6.2156039191989083e-05 0.0000000000000000e+00  5.6089332389717722e-04  8.3419804588765847e-05 0.0000000000000000e+00  5.7395518795415616e-04  3.3278218001719360e-05 0.0000000000000000e+00  4.2482767238907792e-04  2.5225652483276817e-05 0.0000000000000000e+00  3.5805438770098369e-04  1.4931125521056690e-05 0.0000000000000000e+00  3.7118790507572122e-04  1.7235764497227054e-04 0.0000000000000000e+00  4.2340037069343753e-04  9.4734949361966053e-05 0.0000000000000000e+00  6.3955493571056846e-04  5.5037120958217130e-04 0.0000000000000000e+00  2.1256528486821862e-04  5.1997369111226341e-04 0.0000000000000000e+00  1.9606360165386227e-04  4.0670882000415099e-04 0.0000000000000000e+00  6.2618966691508813e-04  1.2291399777040606e-04 0.0000000000000000e+00  5.7443790746681005e-04  1.5019356222837534e-04 0.0000000000000000e+00  7.5431318047967304e-04  4.9195282700871168e-06 0.0000000000000000e+00  1.9396518154661625e-05  6.5489565398263797e-04 0.0000000000000000e+00  6.5851794962281926e-06  7.5008066866999283e-04 0.0000000000000000e+00  3.9370837809728085e-05  1.4731076024780890e-04 0.0000000000000000e+00  2.2322288346176106e-05  2.1774421872726760e-04 0.0000000000000000e+00  2.3663571792739649e-05  1.4936086499249979e-04 0.0000000000000000e+00  2.9415703605414866e-05  1.1608331126861454e-04 0.0000000000000000e+00  6.4574420847382763e-05  1.7027192088043831e-04 0.0000000000000000e+00  5.3684456862209776e-05  2.5542972569890006e-04 0.0000000000000000e+00  7.2782108990675530e-05  5.4528259441778123e-05 0.0000000000000000e+00  6.3002366064508517e-05  2.1648761393817688e-05 0.0000000000000000e+00  4.5446168917613294e-05  5.2187143424027673e-05 0.0000000000000000e+00  6.0209306266252707e-05  2.6556154593383360e-05 0.0000000000000000e+00  3.7385114750516495e-04  3.6522533515617278e-04 0.0000000000000000e+00  4.2699435519856407e-04  3.5370056225114053e-04 0.0000000000000000e+00  2.5974643095766515e-05  -2.5253287704876370e-06 0.0000000000000000e+00  2.6819117551726046e-05  1.3750478312341495e-06 0.0000000000000000e+00  2.5063233327234426e-05  5.0508353235016946e-05 0.0000000000000000e+00  5.8432876403016873e-04  4.5429649494598619e-04 0.0000000000000000e+00  5.4391114504762853e-04  5.3573358001602288e-04 0.0000000000000000e+00  8.3494971396357880e-05  7.4035502124888765e-05 0.0000000000000000e+00  5.6282832546846988e-05  5.8662480944601075e-05 0.0000000000000000e+00  1.0920288392703617e-04  3.6537435657188336e-05 0.0000000000000000e+00  2.1325989012578342e-04  3.2691774862919036e-05 0.0000000000000000e+00  8.6399335715801035e-05  1.6254659818245093e-04 0.0000000000000000e+00  4.2340257253661608e-05  2.0965188446551284e-04 0.0000000000000000e+00  7.1038661007053855e-05  2.2756422255238739e-04 0.0000000000000000e+00  8.8718983177040324e-05  2.2063871480478096e-04 0.0000000000000000e+00  1.0291574735823303e-04  4.8877219805470865e-04 0.0000000000000000e+00  1.3609661644797255e-04  4.9466555920212735e-04 0.0000000000000000e+00  1.1605796275200577e-04  3.4459957288713791e-04 0.0000000000000000e+00  9.9748969376635380e-05  4.2304991162353187e-04 0.0000000000000000e+00  2.2569260465990745e-04  6.9793071058442771e-04 0.0000000000000000e+00  1.8784960349087267e-04  7.3638168611880970e-04 0.0000000000000000e+00  6.85