<?xml version="1.0"?>
<VTKFile type="UnstructuredGrid"  version="0.1"  >
<UnstructuredGrid>
<Piece  NumberOfPoints="1385" NumberOfCells="2640">
<Points>
<DataArray  type="Float64"  NumberOfComponents="3"  format="ascii">0 0 0  1 0 0  1 1 0  0 1 0  0.5 0 0  1 0.5 0  0.5 1 0  0 0.5 0  0.5 0.5 0  0 0.25 0  0.25 0 0  0.25 1 0  0 0.75 0  1 0.25 0  0.75 0 0  1 0.75 0  0.75 1 0  0.7083333333333333 0.2916666666666667 0  0.2916666666666666 0.7083333333333334 0  0.375 0.25 0  0.75 0.625 0  0.2569444444444444 0.4652777777777778 0  0.5366379310344828 0.7535919540229885 0  0.1875 0.1875 0  0.8125 0.8125 0  0.869047619047619 0.375 0  0.1450441919191919 0.6052714646464646 0  0.375 0.8690476190476191 0  0.5526960784313725 0.1825980392156862 0  0.8385416666666666 0.1614583333333334 0  0.1614583333333333 0.8385416666666667 0  0.6736111111111112 0.4652777777777778 0  0.1367521367521368 0.3477564102564102 0  0.6570970491253563 0.8648656830417855 0  0.5102479397556124 0.3386260301221938 0  0.3654513888888889 0.5737847222222222 0  0.6929750044954185 0.1362784921584263 0  0.388576102743835 0.411911725237599 0  0.6091269841269842 0.5942460317460317 0  0.875 0.6875 0  0.427278890279516 0.119889445139758 0  0.8544456845238095 0.5213913690476191 0  0.125 0 0  0 0.125 0  1 0.875 0  0.875 1 0  0.1280008648150532 0.4769292340226777 0  0.2695382451711197 0.3321750950221553 0  0.7031567235715964 0.7447810921428012 0  0.625 0 0  0.375 0 0  0.125 1 0  0.875 0 0  0 0.375 0  0 0.625 0  1 0.375 0  0.375 1 0  1 0.125 0  0 0.875 0  0.625 1 0  1 0.625 0  0.2979288363930608 0.1201429454643536 0  0.410919540229885 0.7484605911330049 0  0.5325041980395562 0.878905151526474 0  0.4831670727569156 0.6331060043826487 0  0.1735997378973042 0.7204747378973043 0  0.2534919507575758 0.5772372159090909 0  0.2633928571428572 0.8876488095238095 0  0.8199404761904761 0.2730654761904762 0  0.75830270586982 0.3919383189517417 0  0.5750282248382511 0.4237522353023667 0  0.6008360210023379 0.2794828358598495 0  0.08163442644334186 0.6821295860397322 0  0.08333333333333333 0.1875 0  0.2028380815996574 0.08844602719988583 0  0.2766521142611967 0.2325436572164097 0  0.90625 0.78125 0  0.890625 0.890625 0  0.7545696325008384 0.8973565441669461 0  0.5625 0.08086590340834317 0  0.09077380952380953 0.09077380952380952 0  0.4610923478694773 0.209034015149656 0  0.7542527598351648 0.5248380520595106 0  0.6459235536037465 0.3619913988405765 0  0.7560381768882634 0.20506142233852 0  0.07073252688172042 0.8125 0  0.0924753097241701 0.9078102849914793 0  0.9292674731182795 0.1875 0  0.9075246902758297 0.09218971500852073 0  0.8125 0.07073252688172045 0  0.2400955776842301 0.7869705776842302 0  0.9121050213379069 0.2781978201831695 0  0.7916878157143976 0.7239689078571988 0  0.9345238095238094 0.4375 0  0.4375 0.9345238095238095 0  0.3725616989755203 0.6651895248862173 0  0.06536271996350887 0.5625 0  0.9348362560379583 0.5625 0  0.456646798987055 0.8277247094351965 0  0.1875 0.9355758238725954 0  0.6169761231634859 0.6939779188977889 0  0.6226854751147515 0.7827911461419014 0  0.3305695598137626 0.7901697871282585 0  0.5865305325818898 0.5101085479043448 0  0.6622701297028378 0.2177663989757395 0  0.1354166666666667 0.2591702279202279 0  0 0.3125 0  0.2094429575680048 0.3936361846162499 0  0.836666296419157 0.607917407161686 0  0.6875 1 0  0.214261555450504 0.6492551722020035 0  0 0.4375 0  0.07731537126068377 0.40625 0  0.3427725432967068 0.4879566233699599 0  0.3550792513951871 0.3331953632609953 0  0.4462473953896857 0.2887834789342508 0  0.4747801464819794 0.417386052030127 0  0.8229836475148948 0.4443292349237342 0  0.7322605135514757 0.8199240278289671 0  0.6756431877205955 0.5468989748126787 0  0.1968419507215863 0.5194573482612496 0  0.3285590277777778 0.9345238095238095 0  0.8125 1 0  0.4198917601920009 0.5134893045331258 0  0.5232405503206691 0.2595791787880157 0  1 0.9375 0  0.1987510870015086 0.3025185951894431 0  0.5625 1 0  0.6005390654136388 0.9228110509230952 0  0.6411254848194414 0.07704872765442942 0  0.3357233162523242 0.1855113224530532 0  0.6730653396610877 0.6393887462324165 0  0.310966987234063 0.6240019765311626 0  0.7368737836204349 0.07457755202327881 0  0.6192316414418171 0.1485238406378594 0  0.5432429670607106 0.678552703844006 0  0.4754371679695679 0.7103946803120881 0  0.07501324890749672 0.3043839897335739 0  0.5358146975860403 0.5688321463205916 0  0.3115271739500156 0.3982137365971444 0  0.3625191397122174 0.0767854603650549 0  0.5024029442563831 0.1264128223758444 0  0.4375 0 0  0.4699946908887376 0.06379961173775725 0  0.9375 0.71875 0  0.9272105898044465 0.635671179608893 0  0.9375 1 0  0.6690971819568612 0.9331530898202766 0  0.1073454944778885 0.7499206387638554 0  0.8699082999280406 0.2232403652524313 0  0.5773118091863964 0.3548027349159383 0  0.1354166666666667 0.1428571428571428 0  0.3125 0 0  0.8241684193077341 0.9257452995055244 0  0.4352314948354036 0.3586940847489378 0  0.4351301473778832 0.5819726043539077 0  0.8073232928518163 0.3419398170341962 0  0.7775949246947366 0.1298519409204575 0  0.6875 0 0  0.7413513991851041 0.457933324954483 0  0.939453125 0.841796875 0  0.5630355154606987 0.8171875156478349 0  0.9345238095238095 0.3461466592368577 0  0.9375 0 0  1 0.0625 0  0.0625 1 0  0 0.9375 0  0.06552178593177167 0.4969053669623468 0  0.1424866619031703 0.4130277709291224 0  0.1275287182444726 0.5422946908002588 0  0.2637686595586339 0.06413888464529549 0  0.2524263535491086 0.1697437503243817 0  0.7367218397988525 0.6888573970660841 0  0.0625 0 0  0 0.0625 0  0.8463594539285995 0.7578283617857982 0  0.3128751192101563 0.2851997374369947 0  0.4015281788351144 0.1806421385113692 0  0.1910251795116588 0.4553332197174453 0  0.287797471442006 0.5222621440543902 0  0.3962628745986055 0.8097380085535307 0  0.3505895299554843 0.7304878890838692 0  0.5019151500495276 0.9356042615328103 0  0.9374389419410134 0.4999931039076005 0  0.3125 1 0  0.1875 1 0  1 0.5625 0  0.4375 1 0  1 0.3125 0  1 0.4375 0  0.8125 0 0  1 0.1875 0  0.5625 0 0  0.1875 0 0  0 0.1875 0  0 0.5625 0  0 0.6875 0  0 0.8125 0  1 0.6875 0  1 0.8125 0  0.8021696218581627 0.6612893947866073 0  0.06154922295426143 0.6239401126946708 0  0.9359375 0.9359375 0  0.4666158024849896 0.7691515918155014 0  0.2318201265217025 0.7064974250277525 0  0.1565954253579966 0.6635489312486841 0  0.1598132503680848 0.7787147500325552 0  0.3146529991605639 0.8510876378205265 0  0.1461873209418733 0.05982804528877814 0  0.06109554988524315 0.2446551776247686 0  0.8054950308560754 0.5564226538848541 0  0.470541749491976 0.8853316336952531 0  0.6948472567465137 0.4042308563372457 0  0.8802828472348889 0.4658893256343853 0  0.6788075634946739 0.7974194205806069 0  0.2155048659603867 0.2428201584940968 0  0.8131223143423806 0.2132171049028394 0  0.4330798005432235 0.6671274900735726 0  0.6015279126162613 0.2187368078743274 0  0.8061636571464289 0.8703766630361714 0  0.7008230445061776 0.3478568388444072 0  0.8638466246958771 0.3147095987735538 0  0.204801534004265 0.8789209409594009 0  0.2449006736431132 0.9424182882803838 0  0.7611268409371427 0.2643056884799992 0  0.7552800864046191 0.7678006649959446 0  0.5983639638906616 0.864113435029236 0  0.1956559506814437 0.577281203577426 0  0.3527670268164207 0.1320469097565204 0  0.7530364577483248 0.3262386077083089 0  0.4535919187979363 0.4690107087451527 0  0.8824869791666666 0.8336588541666666 0  0.8814453125 0.9451171875 0  0.5582987942628019 0.622421666543858 0  0.6817532446064828 0.6939001801354731 0  0.3830295138888889 0.9450968952922078 0  0.4140603937012541 0.05211333372716105 0  0.5535864501303013 0.3060591985391672 0  0.6560130086346878 0.2729726562211558 0  0.890203140221684 0.5948314305427268 0  0.7043857725999024 0.593980890020804 0  0.5105843922695152 0.8016828014338627 0  0.05365910753708378 0.7315110031682004 0  0.616904573672261 0.4621186633436136 0  0.5338511646455415 0.387875898899613 0  0.5231769258947843 0.4477682463140762 0  0.650302973237622 0.7370722302085519 0  0.3927483139621257 0.4662414504529014 0  0.8034595960585199 0.4972538342758211 0  0.7738337841682438 0.9496376207663251 0  0.7193737507158268 0.954685447650112 0  0.482525916480686 0.5528257169991676 0  0.2533501157346781 0.2809495420003238 0  0.3118487924482243 0.5702930126570319 0  0.6257598847669529 0.4104163315430518 0  0.1354166666666667 0.1955605158730158 0  0.04166666666666666 0.15625 0  0.3956448985530264 0.6174149462065157 0  0.8102897701818546 0.3938784238208349 0  0.2641154190013625 0.8344469561943118 0  0.642852220770013 0.5068794586563659 0  0.05271458179508221 0.355846947336007 0  0.7021551360070266 0.8921457280225779 0  0.5692125776683765 0.1328512638850284 0  0.5206162811937602 0.04865158770992991 0  0.6001838442201555 0.04540556991297563 0  0.2597716608242787 0.4118346398477178 0  0.4040584599473195 0.3179589136784675 0  0.1480337679295207 0.8941560631483065 0  0.1344356707112281 0.9466251177415842 0  0.7114696411829317 0.4983917389078826 0  0.7585704698442475 0.5751926345944629 0  0.2189131956390871 0.04022068508159698 0  0.2476935455192043 0.1123642267635843 0  0.185995005654517 0.1365524537205238 0  0.6223414373308711 0.643380839165121 0  0.5732602596637543 0.7190051747306219 0  0.268358222364537 0.6586246524467934 0  0.3265879848129173 0.2369791782191225 0  0.1267095595787346 0.7034787238999181 0  0.1115202922226038 0.6421997933884982 0  0.3128688392940203 0.07260997451790079 0  0.550724900485678 0.9253360991633187 0  0.7142608810459105 0.2384904702214873 0  0.7045869185243887 0.1871826897887429 0  0.890625 0.734375 0  0.953125 0.765625 0  0.2111812642821677 0.8286209446459138 0  0.9590293078204457 0.09375 0  0.953431269039847 0.1435719386408004 0  0.04097069217955424 0.90625 0  0.04656873096015299 0.8564280613591996 0  0.1078743037981226 0.8541621766048062 0  0.8921256962018773 0.1458378233951939 0  0.8521576979194619 0.1084496634207678 0  0.8655663982740958 0.05464346096571447 0  0.04005659640905543 0.09375 0  0.1001448316533417 0.04246776244228261 
[...]
<CellData  Vectors="f_8394-1"> 
<DataArray  type="Float64"  Name="f_8394-1"  NumberOfComponents="3" format="ascii">1.1656423513513413e-04  9.9602738488526339e-05 0.0000000000000000e+00  3.2889136387726196e-05  4.9115530984067743e-05 0.0000000000000000e+00  3.7142495097673455e-05  4.5816829585103083e-05 0.0000000000000000e+00  1.9168101499291109e-05  2.4917899607818085e-05 0.0000000000000000e+00  5.5662775036323710e-05  1.0375636085114248e-04 0.0000000000000000e+00  4.5924680072934724e-05  4.3463991804117174e-05 0.0000000000000000e+00  3.4373642251163545e-05  3.0726373785348193e-04 0.0000000000000000e+00  2.5234392855632854e-05  4.4244425678119278e-04 0.0000000000000000e+00  3.7744439827070434e-04  2.0010206306778207e-05 0.0000000000000000e+00  1.7161700433629198e-04  7.1861310470915661e-06 0.0000000000000000e+00  7.3044439461943941e-05  3.1794152206231127e-05 0.0000000000000000e+00  2.6728696208124018e-04  3.2036366416732264e-04 0.0000000000000000e+00  2.1085587141647145e-04  3.9550200910790420e-04 0.0000000000000000e+00  3.1128397446279977e-04  2.2655622679618791e-04 0.0000000000000000e+00  3.8900344791002067e-04  1.8036695578618823e-04 0.0000000000000000e+00  3.3349222511050897e-04  1.2404069820674037e-04 0.0000000000000000e+00  2.2889915193777664e-04  2.5415426890931932e-04 0.0000000000000000e+00  1.0315006132381210e-04  1.1862327902104930e-04 0.0000000000000000e+00  5.7368498848052916e-05  2.8018806193284829e-04 0.0000000000000000e+00  1.6089587161973202e-04  5.5977184588919077e-05 0.0000000000000000e+00  1.7093302911693655e-04  3.6490426762795307e-05 0.0000000000000000e+00  3.0760665313028974e-04  1.1543621108711988e-04 0.0000000000000000e+00  3.3909032989689090e-04  1.0828362540830606e-04 0.0000000000000000e+00  4.3349025115136297e-05  3.0457162620541446e-04 0.0000000000000000e+00  5.7780191493519378e-05  1.5172840457029318e-04 0.0000000000000000e+00  7.3421405963423496e-05  3.5997243757052654e-04 0.0000000000000000e+00  7.0977457524388492e-06  4.1716654128016678e-05 0.0000000000000000e+00  2.7842394411544389e-04  3.3729706078996461e-05 0.0000000000000000e+00  2.4658777216513194e-05  4.3433904165561581e-04 0.0000000000000000e+00  1.6241978620038029e-04  1.8342312767704027e-05 0.0000000000000000e+00  3.7340282584254225e-04  5.4410031468200362e-05 0.0000000000000000e+00  1.4730342618152583e-04  2.0830296333802626e-04 0.0000000000000000e+00  1.5327444890697115e-04  7.9915713456195161e-05 0.0000000000000000e+00  2.2595916787223794e-04  3.5976560400443350e-04 0.0000000000000000e+00  8.1373022213420090e-05  2.9104681618263206e-05 0.0000000000000000e+00  1.0655393044122489e-04  6.1341909605513382e-05 0.0000000000000000e+00  1.1618525050053618e-04  1.5866451925948690e-04 0.0000000000000000e+00  6.1243811486050810e-05  3.1767263379790231e-04 0.0000000000000000e+00  2.3646474073048783e-04  2.9553316515046448e-05 0.0000000000000000e+00  1.0237634869948619e-04  9.5455957796711910e-05 0.0000000000000000e+00  9.9377927020422428e-05  9.0107674826907377e-05 0.0000000000000000e+00  1.6742581837648598e-04  9.9586429377005473e-05 0.0000000000000000e+00  3.5672491229361700e-04  1.6451183961387555e-04 0.0000000000000000e+00  3.9002879280250279e-04  1.7200830185708213e-04 0.0000000000000000e+00  6.0683202069424373e-05  1.6178615783742062e-05 0.0000000000000000e+00  4.6136796878261648e-04  2.2688929961116246e-04 0.0000000000000000e+00  3.3021414223198959e-04  1.6462162408148662e-04 0.0000000000000000e+00  3.8397725407621014e-05  3.7729792695364858e-05 0.0000000000000000e+00  4.4743352478012269e-04  3.3251471093883488e-04 0.0000000000000000e+00  4.2746742056301134e-04  2.6617981843376007e-04 0.0000000000000000e+00  3.6868544155170362e-04  3.4969362340892478e-04 0.0000000000000000e+00  4.1006363632443776e-04  3.9481370085370243e-04 0.0000000000000000e+00  5.5595557297139377e-05  1.7539428487656911e-04 0.0000000000000000e+00  1.0360469643530475e-04  5.6541147765782642e-05 0.0000000000000000e+00  5.3764657097625649e-05  9.9698875023539622e-05 0.0000000000000000e+00  2.7866911738587554e-04  2.8150542595129299e-04 0.0000000000000000e+00  2.2204254048855605e-04  2.0203348276199142e-04 0.0000000000000000e+00  2.0900925608056375e-04  5.0318081185149750e-05 0.0000000000000000e+00  8.6000418295420467e-05  2.0431328661619389e-05 0.0000000000000000e+00  2.4400190436720704e-05  3.9531489895529959e-04 0.0000000000000000e+00  2.1979832676060170e-05  3.8416934074179059e-04 0.0000000000000000e+00  3.5052487157327336e-04  3.5673276395401868e-05 0.0000000000000000e+00  2.9994098711668089e-05  8.2529131244260829e-05 0.0000000000000000e+00  2.9650102609930863e-05  1.8414571126814806e-04 0.0000000000000000e+00  4.2120164195434264e-05  1.9892554254757579e-04 0.0000000000000000e+00  3.2432889918203263e-04  6.5488637499218718e-05 0.0000000000000000e+00  4.8315359404469585e-05  2.9947938214074067e-04 0.0000000000000000e+00  4.1040812574045371e-04  1.9276141836361520e-05 0.0000000000000000e+00  2.1583792707945458e-05  4.3014321623821572e-04 0.0000000000000000e+00  1.4388339913301947e-04  4.5851054187094988e-04 0.0000000000000000e+00  1.5654237705128274e-04  4.2453488914613878e-04 0.0000000000000000e+00  3.7380947135430960e-04  2.1083327371761108e-04 0.0000000000000000e+00  5.4700526925795085e-05  5.7894955151909691e-05 0.0000000000000000e+00  1.0845743497668256e-04  1.7740801324979435e-04 0.0000000000000000e+00  1.8385769610067685e-04  2.5329537118035626e-04 0.0000000000000000e+00  1.0375115105879236e-04  3.4236922087579479e-04 0.0000000000000000e+00  1.4980388295796242e-04  3.4428261323007139e-04 0.0000000000000000e+00  1.4686636325346472e-04  2.3697179915685041e-04 0.0000000000000000e+00  1.1442466426932302e-04  2.9795092804997579e-04 0.0000000000000000e+00  2.5021949723894149e-05  2.2820935174679380e-04 0.0000000000000000e+00  2.2905288674972779e-05  1.8027765497491253e-04 0.0000000000000000e+00  2.2726023763518740e-05  1.6344656724156433e-04 0.0000000000000000e+00  4.9631947242477401e-05  1.4240241367529752e-04 0.0000000000000000e+00  3.2617425614810251e-05  4.4864692574202012e-04 0.0000000000000000e+00  3.9154546190604708e-04  5.2054227689848516e-05 0.0000000000000000e+00  2.5192155700614759e-04  3.7106051765669727e-05 0.0000000000000000e+00  2.4428991880398864e-04  8.7208703452354644e-05 0.0000000000000000e+00  3.7092809827555666e-04  6.9818991293463264e-05 0.0000000000000000e+00  2.4258424908708972e-04  1.2547677927957231e-04 0.0000000000000000e+00  1.5128917915460872e-04  1.0979268531182356e-04 0.0000000000000000e+00  2.1734479011721909e-04  3.6207520919420942e-05 0.0000000000000000e+00  1.9452178168510994e-04  6.1444147949644442e-05 0.0000000000000000e+00  2.3429202374757599e-05  2.8234834891388010e-05 0.0000000000000000e+00  2.4504529066449780e-05  4.7676612113639388e-06 0.0000000000000000e+00  4.4969831164048262e-05  4.6747224741780726e-05 0.0000000000000000e+00  6.6044285053333050e-05  4.5691603278800003e-05 0.0000000000000000e+00  8.1842993443621251e-05  2.8310979393216191e-05 0.0000000000000000e+00  2.8410057903162979e-04  4.5399635022795967e-04 0.0000000000000000e+00  2.7610410288908039e-04  4.1644756073295840e-04 0.0000000000000000e+00  1.3339421036091261e-04  5.0959380135005340e-05 0.0000000000000000e+00  1.0470129288936741e-04  4.1019899321253712e-05 0.0000000000000000e+00  1.1713988586830623e-04  6.4595229752468041e-05 0.0000000000000000e+00  1.2033803398702054e-04  4.3631825565196991e-05 0.0000000000000000e+00  2.3432605378423575e-04  1.8319361736043028e-04 0.0000000000000000e+00  2.2895653522834772e-04  1.5351446700955589e-04 0.0000000000000000e+00  2.9876634962133422e-04  7.8508306558632986e-05 0.0000000000000000e+00  2.3583294427530186e-04  1.0967931052671334e-04 0.0000000000000000e+00  2.5815932378275326e-04  4.6162861810513404e-05 0.0000000000000000e+00  2.1764888271000264e-04  2.7223677980188046e-05 0.0000000000000000e+00  1.9985632056192977e-05  3.7088178200906692e-04 0.0000000000000000e+00  2.7875277711941984e-05  3.7769029964409862e-04 0.0000000000000000e+00  4.3291419893331184e-04  1.7064910636602049e-05 0.0000000000000000e+00  4.1639866795796992e-04  3.6012797488485195e-05 0.0000000000000000e+00  3.2040510105016905e-04  2.0299774125884401e-05 0.0000000000000000e+00  3.0925325051375791e-04  1.1250427190776164e-05 0.0000000000000000e+00  3.3965197847422423e-05  3.0802707675986344e-04 0.0000000000000000e+00  5.7186006019854636e-05  2.2979579984802357e-04 0.0000000000000000e+00  4.2840054169196001e-04  5.0838917285676605e-05 0.0000000000000000e+00  3.5000968957375441e-04  2.3042689376500888e-04 0.0000000000000000e+00  3.0008002173802163e-04  2.6704685318116835e-04 0.0000000000000000e+00  1.3041808485181956e-04  3.6900102699656995e-04 0.0000000000000000e+00  1.2807019320549803e-04  4.2910741555479183e-04 0.0000000000000000e+00  4.9319094951353434e-05  1.6222345630522407e-04 0.0000000000000000e+00  8.1510137264179797e-05  1.9717550202796020e-04 0.0000000000000000e+00  2.4363200358455569e-05  1.5170943449162538e-04 0.0000000000000000e+00  3.9737049599909475e-05  1.6126905815345632e-04 0.0000000000000000e+00  3.9726411522800670e-04  1.2731367146204787e-04 0.0000000000000000e+00  4.2642012545385412e-04  1.5533508669693009e-04 0.0000000000000000e+00  1.0637546793151648e-04  4.0332506705471178e-04 0.0000000000000000e+00  1.0799335294539449e-04  2.3432230027457484e-04 0.0000000000000000e+00  1.6505317165717211e-04  1.8517998990320053e-04 0.0000000000000000e+00  1.8985706622109226e-04  1.7020856801461189e-04 0.0000000000000000e+00  1.7379116596123043e-04  3.6552146112074640e-04 0.0000000000000000e+00  1.5593541445624537e-04  3.5809251407814145e-04 0.0000000000000000e+00  8.1343576364271194e-05  3.6380547901882090e-04 0.0000000000000000e+00  9.7065745636152587e-05  4.0378373617634098e-04 0.0000000000000000e+00  2.1121557785432139e-04  1.9693747688325316e-04 0.0000000000000000e+00  1.4112718660431157e-04  2.1448283216908340e-04 0.0000000000000000e+00  2.3951143178295363e-04  3.8871422342666334e-05 0.0000000000000000e+00  2.6173487214603406e-04  4.6952405269490744e-05 0.0000000000000000e+00  2.9289006085871035e-05  4.7174153670914297e-05 0.0000000000000000e+00  2.9624102153109827e-05  2.3858658470177453e-05 0.0000000000000000e+00  1.9695148209539615e-05  5.6471548864445411e-05 0.0000000000000000e+00  3.8494433704343517e-05  3.4597529627984049e-05 0.0000000000000000e+00  3.5396353504349008e-05  1.4536300115290432e-04 0.0000000000000000e+00  4.1072113335009152e-05  9.1626151870364964e-05 0.0000000000000000e+00  4.2228421485211633e-04  2.1548122159520804e-04 0.0000000000000000e+00  3.2970601838036123e-04  1.9116310030989380e-04 0.0000000000000000e+00  2.1114933234594481e-04  3.6623951363598479e-04 0.0000000000000000e+00  2.3394628343077680e-04  4.3026292523247510e-04 0.0000000000000000e+00  3.6563056635824030e-05  2.5649351767908531e-04 0.0000000000000000e+00  5.1837442682778454e-05  2.1990850773621318e-04 0.0000000000000000e+00  2.2205645270212295e-05  9.5180032063063040e-05 0.0000000000000000e+00  1.6669364345320819e-05  6.1648657077569008e-05 0.0000000000000000e+00  2.2861352275400775e-05  8.8051334011820766e-05 0.0000000000000000e+00  5.9806901342323766e-05  1.4119018601477685e-04 0.0000000000000000e+00  7.5475094219113731e-05  1.1529823542679100e-04 0.0000000000000000e+00  1.2716225282357585e-04  3.0547660834940498e-05 0.0000000000000000e+00  1.2895298942164633e-04  8.0154499080118451e-05 0.0000000000000000e+00  9.4276529825964789e-05  1.2568554739533753e-04 0.0000000000000000e+00  8.2339822467547504e-05  7.3662500366131748e-05 0.0000000000000000e+00  1.5375729727564461e-04  9.3891309079813392e-05 0.0000000000000000e+00  1.3752030792588116e-04  1.4304444917447154e-04 0.0000000000000000e+00  3.9429668641989221e-04  1.0135361607089816e-04 0.0000000000000000e+00  3.2317657349300579e-04  1.2321488244441085e-04 0.0000000000000000e+00  2.9366656350790163e-04  2.9315490700568861e-04 0.0000000000000000e+00  2.7391000852415077e-04  3.0463635622783732e-04 0.0000000000000000e+00  2.4046138437604082e-04  1.6127428897805705e-04 0.0000000000000000e+00  1.9196763098737720e-04  1.1911111576794986e-04 0.0000000000000000e+00  5.4663961394032792e-05  1.1764787389872702e-04 0.0000000000000000e+00  4.4734563502019503e-05  7.7700351150675803e-05 0.0000000000000000e+00  8.1301829137475000e-05  3.8197730236552089e-04 0.0000000000000000e+00  5.7702166287914689e-05  4.7130272519528305e-04 0.0000000000000000e+00  3.9136701885747748e-04  4.8051099897356952e-04 0.0000000000000000e+00  3.6839953596961737e-04  4.2867917473911132e-04 0.0000000000000000e+00  1.2748118468193693e-04  1.4640093317929367e-04 0.0000000000000000e+00  1.0644375536747981e-04  1.8708964683623338e-04 0.0000000000000000e+00  2.3190815955088942e-04  4.4646573331042980e-05 0.0000000000000000e+00  1.6164973112847377e-04  5.6825206799791063e-05 0.0000000000000000e+00  4.3198827250058970e-04  4.1352463591355317e-04 0.0000000000000000e+00  4.0260456956549512e-04  4.1832424469342218e-04 0.0000000000000000e+00  2.8369749285627172e-05  6.9307904607796499e-05 0.0000000000000000e+00  2.2733115465471878e-05  8.0032153161404250e-05 0.0000000000000000e+00  1.3093049294293503e-04  4.5469171538504066e-04 0.0000000000000000e+00  1.8550261815711088e-04  4.5805131162637120e-04 0.0000000000000000e+00  2.1651360027290351e-04  4.2404223932577357e-04 0.0000000000000000e+00  1.8693424041009906e-04  4.4458184913152707e-04 0.0000000000000000e+00  2.7576548853878546e-04  1.8420160428085455e-05 0.0000000000000000e+00  9.9895549440059535e-05  4.9374894754041270e-05 0.0000000000000000e+00  1.0601190565217287e-04  5.1459062263056625e-05 0.0000000000000000e+00  2.2984726794681123e-04  1.9537954865625194e-04 0.0000000000000000e+00  2.2151845924247811e-04  2.2039060308545459e-04 0.0000000000000000e+00  6.1686226748249848e-05  1.9233593616938227e-04 0.0000000000000000e+00  4.9738791154182630e-05  1.8822047255637951e-04 0.0000000000000000e+00  2.4176232242050159e-04  2.1077748366454017e-05 0.0000000000000000e+00  2.4166342154068399e-04  2.8532026999583386e-05 0.0000000000000000e+00  2.1550891483162666e-04  4.6137255676600492e-05 0.0000000000000000e+00  2.0245952763871063e-04  3.8653329857320661e-05 0.0000000000000000e+00  1.2199896649320304e-04  2.9143910013902896e-04 0.0000000000000000e+00  1.1100898165143468e-04  2.2668072415712285e-04 0.0000000000000000e+00  9.8821039756622590e-05  2.2371452207852472e-04 0.0000000000000000e+00  1.1072714809678454e-04  2.5220081182164637e-04 0.0000000000000000e+00  3.8504384458087839e-05  3.3396328323532183e-05 0.0000000000000000e+00  3.2853542951438358e-05  7.1228877275196148e-05 0.0000000000000000e+00  1.6937829465199126e-04  1.6280803789391673e-04 0.0000000000000000e+00  1.9178517542059369e-04  1.6788911550148520e-04 0.0000000000000000e+00  9.3605768302598011e-05  9.4776378763464645e-05 0.0000000000000000e+00  3.3909653956021574e-05  1.1773453626040337e-04 0.0000000000000000e+00  9.0037743320087630e-05  1.8875362872373634e-05 0.0000000000000000e+00  1.4084617900757420e-04  5.0995953616907359e-05 0.0000000000000000e+00  1.4834608063720754e-04  3.3153427285572951e-05 0.0000000000000000e+00  1.1483096754684509e-04  4.5962808111823679e-05 0.0000000000000000e+00  8.7731188774584307e-05  5.7313521769640587e-05 0.0000000000000000e+00  1.1179368606726001e-04  4.4870886136069927e-05 0.0000000000000000e+00  9.0188344388916010e-05  3.0529757012515978e-05 0.0000000000000000e+00  4.3804325251883407e-04  2.3310031906618379e-04 0.0000000000000000e+00  4.3761629857512360e-04  2.7001824931370414e-04 0.0000000000000000e+00  4.0569714046119064e-04  2.2654343100786140e-04 0.0000000000000000e+00  4.1645998473579800e-04  4.2027077721410323e-04 0.0000000000000000e+00  2.6697302456343987e-04  4.6645737767772035e-04 0.0000000000000000e+00  2.5824316957885033e-05  2.8393513430774345e-04 0.0000000000000000e+00  2.5763456160246156e-05  2.7955168489882440e-04 0.0000000000000000e+00  3.4311983311053799e-04  4.3904819112346444e-05 0.0000000000000000e+00  4.3053505816524607e-04  3.1693556349372533e-05 0.0000000000000000e+00  1.7975815081135575e-04  1.0794060054986518e-04 0.0000000000000000e+00  1.0705698302340123e-04  8.3947727965761050e-05 0.0000000000000000e+00  4.9353957686321027e-05  2.9616551541800494e-05 0.0000000000000000e+00  3.7355914728379302e-05  3.9173531063027652e-05 0.0000000000000000e+00  3.4296550444106399e-04  3.5585720050923384e-04 0.0000000000000000e+00  3.9053774862238955e-04  3.5876430031498661e-04 0.0000000000000000e+00  8.1482220412319246e-05  7.1969771094253609e-05 0.0000000000000000e+00  1.2835920321064190e-04  6.6037204141838746e-05 0.0000000000000000e+00  5.4934402678251494e-05  2.6726077147172706e-04 0.0000000000000000e+00  6.7891338553088942e-05  1.9737192356247666e-04 0.0000000000000000e+00  3.3825158262615064e-04  4.4859007633793187e-05 0.0000000000000000e+00  3.7799138555668515e-04  5.5838471621605277e-05 0.0000000000000000e+00  3.8895517746678396e-04  2.6629563326532213e-05 0.0000000000000000e+00  2.8605791731612908e-04  1.6111615525688445e-05 0.0000000000000000e+00  2.4093659105941831e-04  1.4880981043882876e-05 0.0000000000000000e+00  2.4693482942446230e-04  1.1844794858349245e-04 0.0000000000000000e+00  2.8514356899811763e-04  6.4838142661816623e-05 0.0000000000000000e+00  4.2496784057349411e-04  3.6516750439186243e-04 0.0000000000000000e+00  1.4303335824292267e-04  3.4856901833728039e-04 0.0000000000000000e+00  1.3409012588126430e-04  2.7539816010493245e-04 0.0000000000000000e+00  4.2010618068123138e-04  8.2177644094757411e-05 0.0000000000000000e+00  3.8845666995199820e-04  1.0356516093859236e-04 0.0000000000000000e+00  5.0944511169825457e-04  4.3307452501622376e-06 0.0000000000000000e+00  1.9027897359039079e-05  4.4126586619377961e-04 0.0000000000000000e+00  5.0400136269665079e-06  5.0334149764934060e-04 0.0000000000000000e+00  3.8927487236086000e-05  1.0490877801467277e-04 0.0000000000000000e+00  2.1559547246616307e-05  1.5092370954066721e-04 0.0000000000000000e+00  2.3364557190797897e-05  9.3774434690687485e-05 0.0000000000000000e+00  2.6924016588116106e-05  8.0825550449173384e-05 0.0000000000000000e+00  5.4055765968595344e-05  1.1105505372020095e-04 0.0000000000000000e+00  4.2328381239046807e-05  1.7776895170143304e-04 0.0000000000000000e+00  5.0743897505494876e-05  5.4491533477974636e-05 0.0000000000000000e+00  4.0289457064920552e-05  2.1346662818257848e-05 0.0000000000000000e+00  3.3572298884932832e-05  4.7780409053368807e-05 0.0000000000000000e+00  4.2273150261966207e-05  2.0062810334669752e-05 0.0000000000000000e+00  2.5043836774367608e-04  2.4331419766950919e-04 0.0000000000000000e+00  2.8478831612317496e-04  2.3631489787487552e-04 0.0000000000000000e+00  2.5856626840224049e-05  -3.4520336428196200e-06 0.0000000000000000e+00  2.6770317448508404e-05  -1.0189335046243435e-07 0.0000000000000000e+00  2.4267968401245197e-05  5.0126412644658407e-05 0.0000000000000000e+00  3.8849966587623533e-04  3.0162427738565027e-04 0.0000000000000000e+00  3.6112003780494753e-04  3.5526817410852160e-04 0.0000000000000000e+00  6.2355735567988093e-05  5.4211530181743492e-05 0.0000000000000000e+00  3.9550893057316004e-05  4.4171862774745040e-05 0.0000000000000000e+00  7.7479108160276818e-05  3.1881442331912311e-05 0.0000000000000000e+00  1.4774150720614631e-04  2.6011244245734059e-05 0.0000000000000000e+00  6.1141952604156286e-05  1.1375595633307713e-04 0.0000000000000000e+00  2.9434701139641924e-05  1.4031564961397751e-04 0.0000000000000000e+00  5.6540105438137568e-05  1.5636168938503345e-04 0.0000000000000000e+00  6.2718718448332651e-05  1.5084186705228980e-04 0.0000000000000000e+00  7.2937931749126391e-05  3.2835778100984142e-04 0.0000000000000000e+00  9.2571234083975218e-05  3.3271611425928659e-04 0.0000000000000000e+00  7.9689051588433384e-05  2.3039386105469766e-04 0.0000000000000000e+00  7.0207150944375882e-05  2.8390566680463087e-04 0.0000000000000000e+00  1.5047494378397569e-04  4.6636615070774588e-04 0.0000000000000000e+00  1.2537370740887729e-04  4.9183352730708385e-04 0.0000000000000000e+00  4.5