<?xml version="1.0"?>
<VTKFile type="UnstructuredGrid"  version="0.1"  >
<UnstructuredGrid>
<Piece  NumberOfPoints="1385" NumberOfCells="2640">
<Points>
<DataArray  type="Float64"  NumberOfComponents="3"  format="ascii">0 0 0  1 0 0  1 1 0  0 1 0  0.5 0 0  1 0.5 0  0.5 1 0  0 0.5 0  0.5 0.5 0  0 0.25 0  0.25 0 0  0.25 1 0  0 0.75 0  1 0.25 0  0.75 0 0  1 0.75 0  0.75 1 0  0.7083333333333333 0.2916666666666667 0  0.2916666666666666 0.7083333333333334 0  0.375 0.25 0  0.75 0.625 0  0.2569444444444444 0.4652777777777778 0  0.5366379310344828 0.7535919540229885 0  0.1875 0.1875 0  0.8125 0.8125 0  0.869047619047619 0.375 0  0.1450441919191919 0.6052714646464646 0  0.375 0.8690476190476191 0  0.5526960784313725 0.1825980392156862 0  0.8385416666666666 0.1614583333333334 0  0.1614583333333333 0.8385416666666667 0  0.6736111111111112 0.4652777777777778 0  0.1367521367521368 0.3477564102564102 0  0.6570970491253563 0.8648656830417855 0  0.5102479397556124 0.3386260301221938 0  0.3654513888888889 0.5737847222222222 0  0.6929750044954185 0.1362784921584263 0  0.388576102743835 0.411911725237599 0  0.6091269841269842 0.5942460317460317 0  0.875 0.6875 0  0.427278890279516 0.119889445139758 0  0.8544456845238095 0.5213913690476191 0  0.125 0 0  0 0.125 0  1 0.875 0  0.875 1 0  0.1280008648150532 0.4769292340226777 0  0.2695382451711197 0.3321750950221553 0  0.7031567235715964 0.7447810921428012 0  0.625 0 0  0.375 0 0  0.125 1 0  0.875 0 0  0 0.375 0  0 0.625 0  1 0.375 0  0.375 1 0  1 0.125 0  0 0.875 0  0.625 1 0  1 0.625 0  0.2979288363930608 0.1201429454643536 0  0.410919540229885 0.7484605911330049 0  0.5325041980395562 0.878905151526474 0  0.4831670727569156 0.6331060043826487 0  0.1735997378973042 0.7204747378973043 0  0.2534919507575758 0.5772372159090909 0  0.2633928571428572 0.8876488095238095 0  0.8199404761904761 0.2730654761904762 0  0.75830270586982 0.3919383189517417 0  0.5750282248382511 0.4237522353023667 0  0.6008360210023379 0.2794828358598495 0  0.08163442644334186 0.6821295860397322 0  0.08333333333333333 0.1875 0  0.2028380815996574 0.08844602719988583 0  0.2766521142611967 0.2325436572164097 0  0.90625 0.78125 0  0.890625 0.890625 0  0.7545696325008384 0.8973565441669461 0  0.5625 0.08086590340834317 0  0.09077380952380953 0.09077380952380952 0  0.4610923478694773 0.209034015149656 0  0.7542527598351648 0.5248380520595106 0  0.6459235536037465 0.3619913988405765 0  0.7560381768882634 0.20506142233852 0  0.07073252688172042 0.8125 0  0.0924753097241701 0.9078102849914793 0  0.9292674731182795 0.1875 0  0.9075246902758297 0.09218971500852073 0  0.8125 0.07073252688172045 0  0.2400955776842301 0.7869705776842302 0  0.9121050213379069 0.2781978201831695 0  0.7916878157143976 0.7239689078571988 0  0.9345238095238094 0.4375 0  0.4375 0.9345238095238095 0  0.3725616989755203 0.6651895248862173 0  0.06536271996350887 0.5625 0  0.9348362560379583 0.5625 0  0.456646798987055 0.8277247094351965 0  0.1875 0.9355758238725954 0  0.6169761231634859 0.6939779188977889 0  0.6226854751147515 0.7827911461419014 0  0.3305695598137626 0.7901697871282585 0  0.5865305325818898 0.5101085479043448 0  0.6622701297028378 0.2177663989757395 0  0.1354166666666667 0.2591702279202279 0  0 0.3125 0  0.2094429575680048 0.3936361846162499 0  0.836666296419157 0.607917407161686 0  0.6875 1 0  0.214261555450504 0.6492551722020035 0  0 0.4375 0  0.07731537126068377 0.40625 0  0.3427725432967068 0.4879566233699599 0  0.3550792513951871 0.3331953632609953 0  0.4462473953896857 0.2887834789342508 0  0.4747801464819794 0.417386052030127 0  0.8229836475148948 0.4443292349237342 0  0.7322605135514757 0.8199240278289671 0  0.6756431877205955 0.5468989748126787 0  0.1968419507215863 0.5194573482612496 0  0.3285590277777778 0.9345238095238095 0  0.8125 1 0  0.4198917601920009 0.5134893045331258 0  0.5232405503206691 0.2595791787880157 0  1 0.9375 0  0.1987510870015086 0.3025185951894431 0  0.5625 1 0  0.6005390654136388 0.9228110509230952 0  0.6411254848194414 0.07704872765442942 0  0.3357233162523242 0.1855113224530532 0  0.6730653396610877 0.6393887462324165 0  0.310966987234063 0.6240019765311626 0  0.7368737836204349 0.07457755202327881 0  0.6192316414418171 0.1485238406378594 0  0.5432429670607106 0.678552703844006 0  0.4754371679695679 0.7103946803120881 0  0.07501324890749672 0.3043839897335739 0  0.5358146975860403 0.5688321463205916 0  0.3115271739500156 0.3982137365971444 0  0.3625191397122174 0.0767854603650549 0  0.5024029442563831 0.1264128223758444 0  0.4375 0 0  0.4699946908887376 0.06379961173775725 0  0.9375 0.71875 0  0.9272105898044465 0.635671179608893 0  0.9375 1 0  0.6690971819568612 0.9331530898202766 0  0.1073454944778885 0.7499206387638554 0  0.8699082999280406 0.2232403652524313 0  0.5773118091863964 0.3548027349159383 0  0.1354166666666667 0.1428571428571428 0  0.3125 0 0  0.8241684193077341 0.9257452995055244 0  0.4352314948354036 0.3586940847489378 0  0.4351301473778832 0.5819726043539077 0  0.8073232928518163 0.3419398170341962 0  0.7775949246947366 0.1298519409204575 0  0.6875 0 0  0.7413513991851041 0.457933324954483 0  0.939453125 0.841796875 0  0.5630355154606987 0.8171875156478349 0  0.9345238095238095 0.3461466592368577 0  0.9375 0 0  1 0.0625 0  0.0625 1 0  0 0.9375 0  0.06552178593177167 0.4969053669623468 0  0.1424866619031703 0.4130277709291224 0  0.1275287182444726 0.5422946908002588 0  0.2637686595586339 0.06413888464529549 0  0.2524263535491086 0.1697437503243817 0  0.7367218397988525 0.6888573970660841 0  0.0625 0 0  0 0.0625 0  0.8463594539285995 0.7578283617857982 0  0.3128751192101563 0.2851997374369947 0  0.4015281788351144 0.1806421385113692 0  0.1910251795116588 0.4553332197174453 0  0.287797471442006 0.5222621440543902 0  0.3962628745986055 0.8097380085535307 0  0.3505895299554843 0.7304878890838692 0  0.5019151500495276 0.9356042615328103 0  0.9374389419410134 0.4999931039076005 0  0.3125 1 0  0.1875 1 0  1 0.5625 0  0.4375 1 0  1 0.3125 0  1 0.4375 0  0.8125 0 0  1 0.1875 0  0.5625 0 0  0.1875 0 0  0 0.1875 0  0 0.5625 0  0 0.6875 0  0 0.8125 0  1 0.6875 0  1 0.8125 0  0.8021696218581627 0.6612893947866073 0  0.06154922295426143 0.6239401126946708 0  0.9359375 0.9359375 0  0.4666158024849896 0.7691515918155014 0  0.2318201265217025 0.7064974250277525 0  0.1565954253579966 0.6635489312486841 0  0.1598132503680848 0.7787147500325552 0  0.3146529991605639 0.8510876378205265 0  0.1461873209418733 0.05982804528877814 0  0.06109554988524315 0.2446551776247686 0  0.8054950308560754 0.5564226538848541 0  0.470541749491976 0.8853316336952531 0  0.6948472567465137 0.4042308563372457 0  0.8802828472348889 0.4658893256343853 0  0.6788075634946739 0.7974194205806069 0  0.2155048659603867 0.2428201584940968 0  0.8131223143423806 0.2132171049028394 0  0.4330798005432235 0.6671274900735726 0  0.6015279126162613 0.2187368078743274 0  0.8061636571464289 0.8703766630361714 0  0.7008230445061776 0.3478568388444072 0  0.8638466246958771 0.3147095987735538 0  0.204801534004265 0.8789209409594009 0  0.2449006736431132 0.9424182882803838 0  0.7611268409371427 0.2643056884799992 0  0.7552800864046191 0.7678006649959446 0  0.5983639638906616 0.864113435029236 0  0.1956559506814437 0.577281203577426 0  0.3527670268164207 0.1320469097565204 0  0.7530364577483248 0.3262386077083089 0  0.4535919187979363 0.4690107087451527 0  0.8824869791666666 0.8336588541666666 0  0.8814453125 0.9451171875 0  0.5582987942628019 0.622421666543858 0  0.6817532446064828 0.6939001801354731 0  0.3830295138888889 0.9450968952922078 0  0.4140603937012541 0.05211333372716105 0  0.5535864501303013 0.3060591985391672 0  0.6560130086346878 0.2729726562211558 0  0.890203140221684 0.5948314305427268 0  0.7043857725999024 0.593980890020804 0  0.5105843922695152 0.8016828014338627 0  0.05365910753708378 0.7315110031682004 0  0.616904573672261 0.4621186633436136 0  0.5338511646455415 0.387875898899613 0  0.5231769258947843 0.4477682463140762 0  0.650302973237622 0.7370722302085519 0  0.3927483139621257 0.4662414504529014 0  0.8034595960585199 0.4972538342758211 0  0.7738337841682438 0.9496376207663251 0  0.7193737507158268 0.954685447650112 0  0.482525916480686 0.5528257169991676 0  0.2533501157346781 0.2809495420003238 0  0.3118487924482243 0.5702930126570319 0  0.6257598847669529 0.4104163315430518 0  0.1354166666666667 0.1955605158730158 0  0.04166666666666666 0.15625 0  0.3956448985530264 0.6174149462065157 0  0.8102897701818546 0.3938784238208349 0  0.2641154190013625 0.8344469561943118 0  0.642852220770013 0.5068794586563659 0  0.05271458179508221 0.355846947336007 0  0.7021551360070266 0.8921457280225779 0  0.5692125776683765 0.1328512638850284 0  0.5206162811937602 0.04865158770992991 0  0.6001838442201555 0.04540556991297563 0  0.2597716608242787 0.4118346398477178 0  0.4040584599473195 0.3179589136784675 0  0.1480337679295207 0.8941560631483065 0  0.1344356707112281 0.9466251177415842 0  0.7114696411829317 0.4983917389078826 0  0.7585704698442475 0.5751926345944629 0  0.2189131956390871 0.04022068508159698 0  0.2476935455192043 0.1123642267635843 0  0.185995005654517 0.1365524537205238 0  0.6223414373308711 0.643380839165121 0  0.5732602596637543 0.7190051747306219 0  0.268358222364537 0.6586246524467934 0  0.3265879848129173 0.2369791782191225 0  0.1267095595787346 0.7034787238999181 0  0.1115202922226038 0.6421997933884982 0  0.3128688392940203 0.07260997451790079 0  0.550724900485678 0.9253360991633187 0  0.7142608810459105 0.2384904702214873 0  0.7045869185243887 0.1871826897887429 0  0.890625 0.734375 0  0.953125 0.765625 0  0.2111812642821677 0.8286209446459138 0  0.9590293078204457 0.09375 0  0.953431269039847 0.1435719386408004 0  0.04097069217955424 0.90625 0  0.04656873096015299 0.8564280613591996 0  0.1078743037981226 0.8541621766048062 0  0.8921256962018773 0.1458378233951939 0  0.8521576979194619 0.1084496634207678 0  0.8655663982740958 0.05464346096571447 0  0.04005659640905543 0.09375 0  0.1001448316533417 0.04246776244228261 
[...]
<CellData  Vectors="f_8394-1"> 
<DataArray  type="Float64"  Name="f_8394-1"  NumberOfComponents="3" format="ascii">7.4707167983424373e-05  6.6329475442061651e-05 0.0000000000000000e+00  2.9315020752762769e-05  3.4863160024622237e-05 0.0000000000000000e+00  2.5189902406622872e-05  3.3321758187709422e-05 0.0000000000000000e+00  1.6051067676132310e-05  2.3226152621698588e-05 0.0000000000000000e+00  4.0636070982703326e-05  7.0347306266158507e-05 0.0000000000000000e+00  3.5426619715349230e-05  3.9094402546529668e-05 0.0000000000000000e+00  3.3046131130266695e-05  1.8315881307179121e-04 0.0000000000000000e+00  1.7259599171301226e-05  2.6999426001046744e-04 0.0000000000000000e+00  2.2872126692746901e-04  1.9490303125486556e-05 0.0000000000000000e+00  1.0547511612765425e-04  3.4969198188840043e-06 0.0000000000000000e+00  4.8958934037618044e-05  2.6593426559655847e-05 0.0000000000000000e+00  1.5990777769569637e-04  1.9226044962328850e-04 0.0000000000000000e+00  1.2646570312316465e-04  2.3807278077340094e-04 0.0000000000000000e+00  1.8829816031715681e-04  1.3615091551245236e-04 0.0000000000000000e+00  2.3538401842929701e-04  1.0810220486685275e-04 0.0000000000000000e+00  2.0389147338222832e-04  7.8303887497026443e-05 0.0000000000000000e+00  1.3866144434597177e-04  1.5364553032098227e-04 0.0000000000000000e+00  6.5609709773757808e-05  7.8638319939909108e-05 0.0000000000000000e+00  3.9069777598539536e-05  1.7516803967663558e-04 0.0000000000000000e+00  1.0051424683792852e-04  4.2061142485493974e-05 0.0000000000000000e+00  1.0520482088290549e-04  3.0245376093425042e-05 0.0000000000000000e+00  1.8711771641239072e-04  7.1771482058037274e-05 0.0000000000000000e+00  2.0736094956671082e-04  6.5887432028091200e-05 0.0000000000000000e+00  2.8525248971253453e-05  1.8552508302200162e-04 0.0000000000000000e+00  3.5744382534017221e-05  9.7927900318309243e-05 0.0000000000000000e+00  4.6493439654648947e-05  2.2395806938797194e-04 0.0000000000000000e+00  7.2316161585685021e-06  4.1913189412518815e-05 0.0000000000000000e+00  1.7436436317870408e-04  2.7945281034774385e-05 0.0000000000000000e+00  1.5504946634737377e-05  2.6537611888479220e-04 0.0000000000000000e+00  9.8143234279062023e-05  1.3037960120935185e-05 0.0000000000000000e+00  2.3025175899734750e-04  3.6046809062312724e-05 0.0000000000000000e+00  8.7170327442491707e-05  1.2762514584405070e-04 0.0000000000000000e+00  8.8589365660186227e-05  5.2537537322488703e-05 0.0000000000000000e+00  1.3579204284019651e-04  2.1628943723908924e-04 0.0000000000000000e+00  5.7676695771032261e-05  1.8888591412099380e-05 0.0000000000000000e+00  8.1688704236502550e-05  4.3335085779824485e-05 0.0000000000000000e+00  7.7254959324515540e-05  1.0408706012090655e-04 0.0000000000000000e+00  4.2209962273466417e-05  1.9257819258003577e-04 0.0000000000000000e+00  1.3923642694012685e-04  2.9105345490272343e-05 0.0000000000000000e+00  6.8634501584237260e-05  5.8653451088734266e-05 0.0000000000000000e+00  6.7595357005124226e-05  5.4709617544186754e-05 0.0000000000000000e+00  1.0415582227323081e-04  6.5917988262142544e-05 0.0000000000000000e+00  2.1564030851207506e-04  9.9305824949769559e-05 0.0000000000000000e+00  2.3599925801075792e-04  1.0313249306917373e-04 0.0000000000000000e+00  4.0534650497520428e-05  1.5356533424258544e-05 0.0000000000000000e+00  2.7717289295166921e-04  1.3587549852859895e-04 0.0000000000000000e+00  2.0100795235393430e-04  9.8660235021361117e-05 0.0000000000000000e+00  2.9113660716553128e-05  3.7519588575148490e-05 0.0000000000000000e+00  2.6679025539513059e-04  1.9691947906884242e-04 0.0000000000000000e+00  2.5588985388901801e-04  1.5873647376440819e-04 0.0000000000000000e+00  2.1869527432027904e-04  2.0896563647914069e-04 0.0000000000000000e+00  2.4236752361727701e-04  2.3530726341841238e-04 0.0000000000000000e+00  4.3732588520714286e-05  1.1350538085428769e-04 0.0000000000000000e+00  8.1640721504399734e-05  3.9604630961983977e-05 0.0000000000000000e+00  3.9768249299289521e-05  6.3862890020568536e-05 0.0000000000000000e+00  1.6689382349953098e-04  1.6910968180298909e-04 0.0000000000000000e+00  1.3478543902265333e-04  1.2226950300850214e-04 0.0000000000000000e+00  1.2539765004432966e-04  4.7830735466535832e-05 0.0000000000000000e+00  5.7240668151316854e-05  1.6397072787817575e-05 0.0000000000000000e+00  2.1751009781224827e-05  2.4418557801384117e-04 0.0000000000000000e+00  1.4093372803764519e-05  2.3494048660193599e-04 0.0000000000000000e+00  2.1272517106225863e-04  3.5392046511689387e-05 0.0000000000000000e+00  3.0063653951247971e-05  5.8689468456559277e-05 0.0000000000000000e+00  2.5645135929321367e-05  1.1563001888026998e-04 0.0000000000000000e+00  4.2136297265242679e-05  1.2367036322591981e-04 0.0000000000000000e+00  1.9572334442575416e-04  3.9618982511591507e-05 0.0000000000000000e+00  3.3727427621319320e-05  1.8555299811149112e-04 0.0000000000000000e+00  2.5015570631125569e-04  1.8491822054373893e-05 0.0000000000000000e+00  1.4798618720322338e-05  2.6097991910513163e-04 0.0000000000000000e+00  8.6159161650193868e-05  2.7650251743579254e-04 0.0000000000000000e+00  9.4207302974942228e-05  2.5664545016919533e-04 0.0000000000000000e+00  2.2551572154203716e-04  1.2614623550508833e-04 0.0000000000000000e+00  4.8774040406245804e-05  3.9328814546794110e-05 0.0000000000000000e+00  6.3867707572458555e-05  1.1198897780222668e-04 0.0000000000000000e+00  1.1059435692627748e-04  1.5582971047744517e-04 0.0000000000000000e+00  6.3846594200226849e-05  2.0942489083887786e-04 0.0000000000000000e+00  9.0344814373902069e-05  2.0808933901027293e-04 0.0000000000000000e+00  9.1944449357380650e-05  1.4726353968572053e-04 0.0000000000000000e+00  7.1812807972925080e-05  1.8523069654207398e-04 0.0000000000000000e+00  2.3552867215075881e-05  1.3435298015326659e-04 0.0000000000000000e+00  2.0917801160638800e-05  1.0623474331743934e-04 0.0000000000000000e+00  1.8256703819137000e-05  9.9349718148134629e-05 0.0000000000000000e+00  3.4103779207182151e-05  9.0947645411431651e-05 0.0000000000000000e+00  1.9311442400736147e-05  2.7428917231569393e-04 0.0000000000000000e+00  2.4152861379307219e-04  3.4331114652162561e-05 0.0000000000000000e+00  1.5135317596348354e-04  2.9236345998804937e-05 0.0000000000000000e+00  1.5240396703358636e-04  5.6855445341166468e-05 0.0000000000000000e+00  2.2740570443131715e-04  4.1339089154103816e-05 0.0000000000000000e+00  1.5389145070399002e-04  7.9703804339349851e-05 0.0000000000000000e+00  9.6082854726948540e-05  7.3349388613810692e-05 0.0000000000000000e+00  1.4408950409539739e-04  2.9883649688982559e-05 0.0000000000000000e+00  1.2160025113164452e-04  4.2122889170224572e-05 0.0000000000000000e+00  2.3403286492161892e-05  1.6429906192445872e-05 0.0000000000000000e+00  1.8773624007768059e-05  2.1727029289272338e-06 0.0000000000000000e+00  3.5645871853115428e-05  3.7496222051026961e-05 0.0000000000000000e+00  4.8891896420837397e-05  4.0161922343367966e-05 0.0000000000000000e+00  5.5860149661022504e-05  2.4035760879101430e-05 0.0000000000000000e+00  1.7002505406949820e-04  2.7125784463916217e-04 0.0000000000000000e+00  1.6471456855858603e-04  2.4850651835920328e-04 0.0000000000000000e+00  8.2405505912657099e-05  4.9443923338709122e-05 0.0000000000000000e+00  5.9468185677787694e-05  4.0146581681480040e-05 0.0000000000000000e+00  7.0448225263707590e-05  4.9570704729562231e-05 0.0000000000000000e+00  8.2730028142971070e-05  3.3520891315864564e-05 0.0000000000000000e+00  1.4339581428483551e-04  1.1272305057399593e-04 0.0000000000000000e+00  1.4190010986010726e-04  9.3153700256947122e-05 0.0000000000000000e+00  1.8095902205515259e-04  4.6171021166195237e-05 0.0000000000000000e+00  1.4706717688972459e-04  7.0024276574129300e-05 0.0000000000000000e+00  1.5666599990943328e-04  3.6832196379769247e-05 0.0000000000000000e+00  1.3035809547255040e-04  2.3030559114875798e-05 0.0000000000000000e+00  1.8954725707599406e-05  2.2351268652835707e-04 0.0000000000000000e+00  2.4834079702525389e-05  2.3145429779203723e-04 0.0000000000000000e+00  2.6578907616604585e-04  1.3266017260835549e-05 0.0000000000000000e+00  2.5671056353439542e-04  2.6362386357196652e-05 0.0000000000000000e+00  1.9486986463992251e-04  1.9290118323344917e-05 0.0000000000000000e+00  1.8935333499724263e-04  1.0725214566464903e-05 0.0000000000000000e+00  2.7963773048799101e-05  1.8564929382465577e-04 0.0000000000000000e+00  4.0796274290509773e-05  1.4253759488134149e-04 0.0000000000000000e+00  2.6385356974208016e-04  3.3476745432543887e-05 0.0000000000000000e+00  2.1028142214583886e-04  1.3775205633621886e-04 0.0000000000000000e+00  1.8047084463010231e-04  1.5939927925699159e-04 0.0000000000000000e+00  7.8695224663521163e-05  2.2550732136764404e-04 0.0000000000000000e+00  7.7313602629943990e-05  2.5984403961354938e-04 0.0000000000000000e+00  3.8255436943088826e-05  9.4244113732495536e-05 0.0000000000000000e+00  5.4225980812300203e-05  1.1909898555680692e-04 0.0000000000000000e+00  2.4000077881047173e-05  9.2114023800734406e-05 0.0000000000000000e+00  3.7968458104552501e-05  1.0474024588192209e-04 0.0000000000000000e+00  2.4048596095303215e-04  7.6413285668943092e-05 0.0000000000000000e+00  2.5730237547333038e-04  9.3139413826198695e-05 0.0000000000000000e+00  6.5133097579597412e-05  2.4658150286497682e-04 0.0000000000000000e+00  6.7110850360642036e-05  1.4277622383914714e-04 0.0000000000000000e+00  1.0057570347778147e-04  1.1278383064871620e-04 0.0000000000000000e+00  1.1764780386941252e-04  1.0170927120777812e-04 0.0000000000000000e+00  1.0440677918511183e-04  2.2067917893348299e-04 0.0000000000000000e+00  9.4140555599819451e-05  2.1768860179238356e-04 0.0000000000000000e+00  5.0044155502527288e-05  2.2467370659681182e-04 0.0000000000000000e+00  5.8780329613398854e-05  2.4676687839249279e-04 0.0000000000000000e+00  1.2735666473124091e-04  1.1933178293754519e-04 0.0000000000000000e+00  8.9662028141836731e-05  1.3504995136187045e-04 0.0000000000000000e+00  1.4452678361865707e-04  3.2706880661883568e-05 0.0000000000000000e+00  1.5954640779303303e-04  3.2195567465007641e-05 0.0000000000000000e+00  2.1414126032423896e-05  3.7287211585991529e-05 0.0000000000000000e+00  2.6549875069416626e-05  1.3065843002444327e-05 0.0000000000000000e+00  1.8935320659634053e-05  3.3558182920237774e-05 0.0000000000000000e+00  3.8518654722196861e-05  1.7704551889371411e-05 0.0000000000000000e+00  3.1293950305745106e-05  9.1278654905347389e-05 0.0000000000000000e+00  3.2030550972521232e-05  5.8556107853089259e-05 0.0000000000000000e+00  2.5408888418346415e-04  1.2919346660365748e-04 0.0000000000000000e+00  1.9974562190889003e-04  1.1513475397614650e-04 0.0000000000000000e+00  1.2674985165107012e-04  2.2052854004642362e-04 0.0000000000000000e+00  1.4008642824368570e-04  2.5828591213575085e-04 0.0000000000000000e+00  2.4868817979177739e-05  1.6103638374454017e-04 0.0000000000000000e+00  4.2427343470177551e-05  1.3765634702248022e-04 0.0000000000000000e+00  2.2210943678026654e-05  5.2683366928328667e-05 0.0000000000000000e+00  1.6376941057915716e-05  3.7510212924488173e-05 0.0000000000000000e+00  1.9911594879781709e-05  5.6665504531598460e-05 0.0000000000000000e+00  4.1306894074331843e-05  8.6210934490447999e-05 0.0000000000000000e+00  5.1705844347842153e-05  7.5642221528375307e-05 0.0000000000000000e+00  7.8764082834553405e-05  2.0131018482113546e-05 0.0000000000000000e+00  8.7255064882779329e-05  5.7933281567952862e-05 0.0000000000000000e+00  6.6337780157350816e-05  8.4707997994340801e-05 0.0000000000000000e+00  5.2431953591830411e-05  5.3124576702946304e-05 0.0000000000000000e+00  9.7798356753699757e-05  6.0803477359765913e-05 0.0000000000000000e+00  8.5526968832153006e-05  9.0001856616059683e-05 0.0000000000000000e+00  2.4170306834035677e-04  6.0837190770849862e-05 0.0000000000000000e+00  1.9892877368808058e-04  7.6556106856951324e-05 0.0000000000000000e+00  1.7544339605523899e-04  1.7556377166688268e-04 0.0000000000000000e+00  1.6425819715106102e-04  1.8205618104771712e-04 0.0000000000000000e+00  1.4639843524343578e-04  9.8417813537948274e-05 0.0000000000000000e+00  1.1992024527790158e-04  7.5967399438196074e-05 0.0000000000000000e+00  5.1028321616486982e-05  7.6712705509517797e-05 0.0000000000000000e+00  3.5137736629514032e-05  4.9718855565944514e-05 0.0000000000000000e+00  5.1357185545795054e-05  2.3360142011535708e-04 0.0000000000000000e+00  3.5604605953796749e-05  2.8758686298916244e-04 0.0000000000000000e+00  2.3314643251225924e-04  2.8399205640598801e-04 0.0000000000000000e+00  2.1862163302079497e-04  2.5392074979823108e-04 0.0000000000000000e+00  7.9067247158204270e-05  8.8931435823511103e-05 0.0000000000000000e+00  6.3851113535595024e-05  1.1781284693429821e-04 0.0000000000000000e+00  1.4102173680243448e-04  3.0756205369546403e-05 0.0000000000000000e+00  1.0737876709105074e-04  4.2446394573362102e-05 0.0000000000000000e+00  2.5665037190410943e-04  2.4426769847519115e-04 0.0000000000000000e+00  2.3806424910626566e-04  2.4939840303335112e-04 0.0000000000000000e+00  2.1764240926291931e-05  4.7429488639660428e-05 0.0000000000000000e+00  1.9037965549323893e-05  5.3813229752696904e-05 0.0000000000000000e+00  7.8790662725134857e-05  2.7456673585827759e-04 0.0000000000000000e+00  1.1134074235529643e-04  2.7545003671261786e-04 0.0000000000000000e+00  1.2991303062932490e-04  2.5485310351688965e-04 0.0000000000000000e+00  1.1220245066873210e-04  2.6750696016403165e-04 0.0000000000000000e+00  1.6840762408432822e-04  1.5575864646040210e-05 0.0000000000000000e+00  7.1011521152913835e-05  4.3360770179959466e-05 0.0000000000000000e+00  7.5871063688811921e-05  4.6591695283167156e-05 0.0000000000000000e+00  1.3956152586615383e-04  1.1769351067717894e-04 0.0000000000000000e+00  1.3227861557220771e-04  1.3319300379093608e-04 0.0000000000000000e+00  4.5326064721575477e-05  1.1551100632988315e-04 0.0000000000000000e+00  3.5786073879300985e-05  1.1171476400603805e-04 0.0000000000000000e+00  1.4369269787141276e-04  2.1066195098877423e-05 0.0000000000000000e+00  1.4305385199784830e-04  2.7128216414373691e-05 0.0000000000000000e+00  1.3578542356145913e-04  4.3491930226068403e-05 0.0000000000000000e+00  1.2133292282296203e-04  3.2304951960880988e-05 0.0000000000000000e+00  7.5995862063518626e-05  1.7821923230668143e-04 0.0000000000000000e+00  6.6803974677555358e-05  1.4173686166908973e-04 0.0000000000000000e+00  6.2824231593682186e-05  1.3967019213369006e-04 0.0000000000000000e+00  6.7228502264321972e-05  1.5669399197793075e-04 0.0000000000000000e+00  3.7685115504376987e-05  2.3648696908496675e-05 0.0000000000000000e+00  2.8741768854409472e-05  4.7037067377400937e-05 0.0000000000000000e+00  1.0185200852089396e-04  1.0328397604049992e-04 0.0000000000000000e+00  1.1812827096184068e-04  1.0716597197090686e-04 0.0000000000000000e+00  6.3902951755997892e-05  5.8355963458632129e-05 0.0000000000000000e+00  2.0393892521078765e-05  7.7221321800450190e-05 0.0000000000000000e+00  5.2550061274729651e-05  1.8873494688101660e-05 0.0000000000000000e+00  9.3533338018643661e-05  4.9292506193202245e-05 0.0000000000000000e+00  1.0234582321508510e-04  3.0634692288749342e-05 0.0000000000000000e+00  7.3007561767970996e-05  4.5140179093383737e-05 0.0000000000000000e+00  6.0609086001524711e-05  5.5990268455186267e-05 0.0000000000000000e+00  7.0994536599244414e-05  4.4827065361795521e-05 0.0000000000000000e+00  5.4615096832543968e-05  3.0537568972748306e-05 0.0000000000000000e+00  2.6329013376048783e-04  1.3979441756068584e-04 0.0000000000000000e+00  2.6218230201026366e-04  1.6106743242464666e-04 0.0000000000000000e+00  2.4379762694891300e-04  1.3562102331411260e-04 0.0000000000000000e+00  2.4582472339413822e-04  2.4886403922119276e-04 0.0000000000000000e+00  1.5984401054227018e-04  2.7924654417237126e-04 0.0000000000000000e+00  2.4715111658804222e-05  1.7543033345964975e-04 0.0000000000000000e+00  2.4575636572135056e-05  1.6291364908152365e-04 0.0000000000000000e+00  2.0621418543310816e-04  3.1410767339292190e-05 0.0000000000000000e+00  2.6495330897274752e-04  1.8940166428617925e-05 0.0000000000000000e+00  1.1437286051163704e-04  6.9253843043547917e-05 0.0000000000000000e+00  6.8715486650472519e-05  5.6009616987196419e-05 0.0000000000000000e+00  4.4344663097100030e-05  2.7584324644697222e-05 0.0000000000000000e+00  3.7276568401810293e-05  3.1624995727708152e-05 0.0000000000000000e+00  2.0437627524331808e-04  2.1236767182812989e-04 0.0000000000000000e+00  2.3130028964942064e-04  2.1287293669069280e-04 0.0000000000000000e+00  5.1146111137036410e-05  5.3210757239951794e-05 0.0000000000000000e+00  9.2224930105057118e-05  4.9603994823068452e-05 0.0000000000000000e+00  3.0578285248828448e-05  1.6501786310564828e-04 0.0000000000000000e+00  4.1373933676787860e-05  1.2632557953712472e-04 0.0000000000000000e+00  2.0964924564916462e-04  3.1072792898472591e-05 0.0000000000000000e+00  2.3157719498311579e-04  3.3813002112582471e-05 0.0000000000000000e+00  2.4086467926282560e-04  2.1396289662631056e-05 0.0000000000000000e+00  1.7497791353949434e-04  8.9025632271864733e-06 0.0000000000000000e+00  1.4723495309577062e-04  1.4885729651558590e-05 0.0000000000000000e+00  1.4747392829295237e-04  7.5318424188586329e-05 0.0000000000000000e+00  1.7447916727908035e-04  4.0969843640586677e-05 0.0000000000000000e+00  2.5300444500326458e-04  2.1684796753600001e-04 0.0000000000000000e+00  8.7385229915112493e-05  2.1134418855627834e-04 0.0000000000000000e+00  8.4500715759446606e-05  1.7027964166053269e-04 0.0000000000000000e+00  2.5509640530450395e-04  4.9612635340593739e-05 0.0000000000000000e+00  2.3958336834355916e-04  6.6271020476635690e-05 0.0000000000000000e+00  3.1354247596445279e-04  3.8927302597509563e-06 0.0000000000000000e+00  1.8936873171189063e-05  2.7030245913220680e-04 0.0000000000000000e+00  3.8233907519117612e-06  3.0594012413364270e-04 0.0000000000000000e+00  3.8799419188116394e-05  7.1059670002897535e-05 0.0000000000000000e+00  2.1180833435452895e-05  9.7431061641306327e-05 0.0000000000000000e+00  2.3257791863672501e-05  4.9303102702378732e-05 0.0000000000000000e+00  2.5073797438874091e-05  5.2686914223281927e-05 0.0000000000000000e+00  4.5756654494931322e-05  6.3727758318867398e-05 0.0000000000000000e+00  3.3351780830552512e-05  1.1563118898562917e-04 0.0000000000000000e+00  3.3158969225885446e-05  5.4526360807748092e-05 0.0000000000000000e+00  2.2206658692725164e-05  2.1336424574831954e-05 0.0000000000000000e+00  2.4259180879096161e-05  4.4436620496563845e-05 0.0000000000000000e+00  2.8049872214638309e-05  1.5002004420049309e-05 0.0000000000000000e+00  1.5161127821019103e-04  1.4569269868528693e-04 0.0000000000000000e+00  1.7092434753527658e-04  1.4229949014964234e-04 0.0000000000000000e+00  2.5864331146048460e-05  -3.9784478312995289e-06 0.0000000000000000e+00  2.6768643748343632e-05  -1.2167961446214458e-06 0.0000000000000000e+00  2.4079425822838841e-05  5.0252586065557601e-05 0.0000000000000000e+00  2.3166723125184836e-04  1.7933122818253447e-04 0.0000000000000000e+00  2.1468601909566733e-04  2.1073622506641326e-04 0.0000000000000000e+00  4.5549262108207270e-05  3.8447183664241693e-05 0.0000000000000000e+00  2.6289932851586005e-05  3.2716769997901807e-05 0.0000000000000000e+00  5.2192737225782887e-05  2.8282203251581172e-05 0.0000000000000000e+00  9.5350959106486058e-05  2.0781342388544826e-05 0.0000000000000000e+00  4.1011428203545739e-05  7.4759417370330849e-05 0.0000000000000000e+00  1.9218277015391377e-05  8.4850375051389321e-05 0.0000000000000000e+00  4.5048426154160659e-05  9.9399973140694724e-05 0.0000000000000000e+00  4.1983223142882943e-05  9.5017768251940771e-05 0.0000000000000000e+00  4.8999505857311981e-05  1.9992415314441984e-04 0.0000000000000000e+00  5.7781731709873506e-05  2.0304979372466709e-04 0.0000000000000000e+00  5.0642144614629131e-05  1.3899027577832113e-04 0.0000000000000000e+00  4.6613088798959358e-05  1.7251132768360521e-04 0.0000000000000000e+00  9.0292963687611192e-05  2.8095879048340772e-04 0.0000000000000000e+00  7.5392393017794293e-05  2.9616283788754666e-04 0.0000000000000000e+00  2.7