<?xml version="1.0"?>
<VTKFile type="UnstructuredGrid"  version="0.1"  >
<UnstructuredGrid>
<Piece  NumberOfPoints="1385" NumberOfCells="2640">
<Points>
<DataArray  type="Float64"  NumberOfComponents="3"  format="ascii">0 0 0  1 0 0  1 1 0  0 1 0  0.5 0 0  1 0.5 0  0.5 1 0  0 0.5 0  0.5 0.5 0  0 0.25 0  0.25 0 0  0.25 1 0  0 0.75 0  1 0.25 0  0.75 0 0  1 0.75 0  0.75 1 0  0.7083333333333333 0.2916666666666667 0  0.2916666666666666 0.7083333333333334 0  0.375 0.25 0  0.75 0.625 0  0.2569444444444444 0.4652777777777778 0  0.5366379310344828 0.7535919540229885 0  0.1875 0.1875 0  0.8125 0.8125 0  0.869047619047619 0.375 0  0.1450441919191919 0.6052714646464646 0  0.375 0.8690476190476191 0  0.5526960784313725 0.1825980392156862 0  0.8385416666666666 0.1614583333333334 0  0.1614583333333333 0.8385416666666667 0  0.6736111111111112 0.4652777777777778 0  0.1367521367521368 0.3477564102564102 0  0.6570970491253563 0.8648656830417855 0  0.5102479397556124 0.3386260301221938 0  0.3654513888888889 0.5737847222222222 0  0.6929750044954185 0.1362784921584263 0  0.388576102743835 0.411911725237599 0  0.6091269841269842 0.5942460317460317 0  0.875 0.6875 0  0.427278890279516 0.119889445139758 0  0.8544456845238095 0.5213913690476191 0  0.125 0 0  0 0.125 0  1 0.875 0  0.875 1 0  0.1280008648150532 0.4769292340226777 0  0.2695382451711197 0.3321750950221553 0  0.7031567235715964 0.7447810921428012 0  0.625 0 0  0.375 0 0  0.125 1 0  0.875 0 0  0 0.375 0  0 0.625 0  1 0.375 0  0.375 1 0  1 0.125 0  0 0.875 0  0.625 1 0  1 0.625 0  0.2979288363930608 0.1201429454643536 0  0.410919540229885 0.7484605911330049 0  0.5325041980395562 0.878905151526474 0  0.4831670727569156 0.6331060043826487 0  0.1735997378973042 0.7204747378973043 0  0.2534919507575758 0.5772372159090909 0  0.2633928571428572 0.8876488095238095 0  0.8199404761904761 0.2730654761904762 0  0.75830270586982 0.3919383189517417 0  0.5750282248382511 0.4237522353023667 0  0.6008360210023379 0.2794828358598495 0  0.08163442644334186 0.6821295860397322 0  0.08333333333333333 0.1875 0  0.2028380815996574 0.08844602719988583 0  0.2766521142611967 0.2325436572164097 0  0.90625 0.78125 0  0.890625 0.890625 0  0.7545696325008384 0.8973565441669461 0  0.5625 0.08086590340834317 0  0.09077380952380953 0.09077380952380952 0  0.4610923478694773 0.209034015149656 0  0.7542527598351648 0.5248380520595106 0  0.6459235536037465 0.3619913988405765 0  0.7560381768882634 0.20506142233852 0  0.07073252688172042 0.8125 0  0.0924753097241701 0.9078102849914793 0  0.9292674731182795 0.1875 0  0.9075246902758297 0.09218971500852073 0  0.8125 0.07073252688172045 0  0.2400955776842301 0.7869705776842302 0  0.9121050213379069 0.2781978201831695 0  0.7916878157143976 0.7239689078571988 0  0.9345238095238094 0.4375 0  0.4375 0.9345238095238095 0  0.3725616989755203 0.6651895248862173 0  0.06536271996350887 0.5625 0  0.9348362560379583 0.5625 0  0.456646798987055 0.8277247094351965 0  0.1875 0.9355758238725954 0  0.6169761231634859 0.6939779188977889 0  0.6226854751147515 0.7827911461419014 0  0.3305695598137626 0.7901697871282585 0  0.5865305325818898 0.5101085479043448 0  0.6622701297028378 0.2177663989757395 0  0.1354166666666667 0.2591702279202279 0  0 0.3125 0  0.2094429575680048 0.3936361846162499 0  0.836666296419157 0.607917407161686 0  0.6875 1 0  0.214261555450504 0.6492551722020035 0  0 0.4375 0  0.07731537126068377 0.40625 0  0.3427725432967068 0.4879566233699599 0  0.3550792513951871 0.3331953632609953 0  0.4462473953896857 0.2887834789342508 0  0.4747801464819794 0.417386052030127 0  0.8229836475148948 0.4443292349237342 0  0.7322605135514757 0.8199240278289671 0  0.6756431877205955 0.5468989748126787 0  0.1968419507215863 0.5194573482612496 0  0.3285590277777778 0.9345238095238095 0  0.8125 1 0  0.4198917601920009 0.5134893045331258 0  0.5232405503206691 0.2595791787880157 0  1 0.9375 0  0.1987510870015086 0.3025185951894431 0  0.5625 1 0  0.6005390654136388 0.9228110509230952 0  0.6411254848194414 0.07704872765442942 0  0.3357233162523242 0.1855113224530532 0  0.6730653396610877 0.6393887462324165 0  0.310966987234063 0.6240019765311626 0  0.7368737836204349 0.07457755202327881 0  0.6192316414418171 0.1485238406378594 0  0.5432429670607106 0.678552703844006 0  0.4754371679695679 0.7103946803120881 0  0.07501324890749672 0.3043839897335739 0  0.5358146975860403 0.5688321463205916 0  0.3115271739500156 0.3982137365971444 0  0.3625191397122174 0.0767854603650549 0  0.5024029442563831 0.1264128223758444 0  0.4375 0 0  0.4699946908887376 0.06379961173775725 0  0.9375 0.71875 0  0.9272105898044465 0.635671179608893 0  0.9375 1 0  0.6690971819568612 0.9331530898202766 0  0.1073454944778885 0.7499206387638554 0  0.8699082999280406 0.2232403652524313 0  0.5773118091863964 0.3548027349159383 0  0.1354166666666667 0.1428571428571428 0  0.3125 0 0  0.8241684193077341 0.9257452995055244 0  0.4352314948354036 0.3586940847489378 0  0.4351301473778832 0.5819726043539077 0  0.8073232928518163 0.3419398170341962 0  0.7775949246947366 0.1298519409204575 0  0.6875 0 0  0.7413513991851041 0.457933324954483 0  0.939453125 0.841796875 0  0.5630355154606987 0.8171875156478349 0  0.9345238095238095 0.3461466592368577 0  0.9375 0 0  1 0.0625 0  0.0625 1 0  0 0.9375 0  0.06552178593177167 0.4969053669623468 0  0.1424866619031703 0.4130277709291224 0  0.1275287182444726 0.5422946908002588 0  0.2637686595586339 0.06413888464529549 0  0.2524263535491086 0.1697437503243817 0  0.7367218397988525 0.6888573970660841 0  0.0625 0 0  0 0.0625 0  0.8463594539285995 0.7578283617857982 0  0.3128751192101563 0.2851997374369947 0  0.4015281788351144 0.1806421385113692 0  0.1910251795116588 0.4553332197174453 0  0.287797471442006 0.5222621440543902 0  0.3962628745986055 0.8097380085535307 0  0.3505895299554843 0.7304878890838692 0  0.5019151500495276 0.9356042615328103 0  0.9374389419410134 0.4999931039076005 0  0.3125 1 0  0.1875 1 0  1 0.5625 0  0.4375 1 0  1 0.3125 0  1 0.4375 0  0.8125 0 0  1 0.1875 0  0.5625 0 0  0.1875 0 0  0 0.1875 0  0 0.5625 0  0 0.6875 0  0 0.8125 0  1 0.6875 0  1 0.8125 0  0.8021696218581627 0.6612893947866073 0  0.06154922295426143 0.6239401126946708 0  0.9359375 0.9359375 0  0.4666158024849896 0.7691515918155014 0  0.2318201265217025 0.7064974250277525 0  0.1565954253579966 0.6635489312486841 0  0.1598132503680848 0.7787147500325552 0  0.3146529991605639 0.8510876378205265 0  0.1461873209418733 0.05982804528877814 0  0.06109554988524315 0.2446551776247686 0  0.8054950308560754 0.5564226538848541 0  0.470541749491976 0.8853316336952531 0  0.6948472567465137 0.4042308563372457 0  0.8802828472348889 0.4658893256343853 0  0.6788075634946739 0.7974194205806069 0  0.2155048659603867 0.2428201584940968 0  0.8131223143423806 0.2132171049028394 0  0.4330798005432235 0.6671274900735726 0  0.6015279126162613 0.2187368078743274 0  0.8061636571464289 0.8703766630361714 0  0.7008230445061776 0.3478568388444072 0  0.8638466246958771 0.3147095987735538 0  0.204801534004265 0.8789209409594009 0  0.2449006736431132 0.9424182882803838 0  0.7611268409371427 0.2643056884799992 0  0.7552800864046191 0.7678006649959446 0  0.5983639638906616 0.864113435029236 0  0.1956559506814437 0.577281203577426 0  0.3527670268164207 0.1320469097565204 0  0.7530364577483248 0.3262386077083089 0  0.4535919187979363 0.4690107087451527 0  0.8824869791666666 0.8336588541666666 0  0.8814453125 0.9451171875 0  0.5582987942628019 0.622421666543858 0  0.6817532446064828 0.6939001801354731 0  0.3830295138888889 0.9450968952922078 0  0.4140603937012541 0.05211333372716105 0  0.5535864501303013 0.3060591985391672 0  0.6560130086346878 0.2729726562211558 0  0.890203140221684 0.5948314305427268 0  0.7043857725999024 0.593980890020804 0  0.5105843922695152 0.8016828014338627 0  0.05365910753708378 0.7315110031682004 0  0.616904573672261 0.4621186633436136 0  0.5338511646455415 0.387875898899613 0  0.5231769258947843 0.4477682463140762 0  0.650302973237622 0.7370722302085519 0  0.3927483139621257 0.4662414504529014 0  0.8034595960585199 0.4972538342758211 0  0.7738337841682438 0.9496376207663251 0  0.7193737507158268 0.954685447650112 0  0.482525916480686 0.5528257169991676 0  0.2533501157346781 0.2809495420003238 0  0.3118487924482243 0.5702930126570319 0  0.6257598847669529 0.4104163315430518 0  0.1354166666666667 0.1955605158730158 0  0.04166666666666666 0.15625 0  0.3956448985530264 0.6174149462065157 0  0.8102897701818546 0.3938784238208349 0  0.2641154190013625 0.8344469561943118 0  0.642852220770013 0.5068794586563659 0  0.05271458179508221 0.355846947336007 0  0.7021551360070266 0.8921457280225779 0  0.5692125776683765 0.1328512638850284 0  0.5206162811937602 0.04865158770992991 0  0.6001838442201555 0.04540556991297563 0  0.2597716608242787 0.4118346398477178 0  0.4040584599473195 0.3179589136784675 0  0.1480337679295207 0.8941560631483065 0  0.1344356707112281 0.9466251177415842 0  0.7114696411829317 0.4983917389078826 0  0.7585704698442475 0.5751926345944629 0  0.2189131956390871 0.04022068508159698 0  0.2476935455192043 0.1123642267635843 0  0.185995005654517 0.1365524537205238 0  0.6223414373308711 0.643380839165121 0  0.5732602596637543 0.7190051747306219 0  0.268358222364537 0.6586246524467934 0  0.3265879848129173 0.2369791782191225 0  0.1267095595787346 0.7034787238999181 0  0.1115202922226038 0.6421997933884982 0  0.3128688392940203 0.07260997451790079 0  0.550724900485678 0.9253360991633187 0  0.7142608810459105 0.2384904702214873 0  0.7045869185243887 0.1871826897887429 0  0.890625 0.734375 0  0.953125 0.765625 0  0.2111812642821677 0.8286209446459138 0  0.9590293078204457 0.09375 0  0.953431269039847 0.1435719386408004 0  0.04097069217955424 0.90625 0  0.04656873096015299 0.8564280613591996 0  0.1078743037981226 0.8541621766048062 0  0.8921256962018773 0.1458378233951939 0  0.8521576979194619 0.1084496634207678 0  0.8655663982740958 0.05464346096571447 0  0.04005659640905543 0.09375 0  0.1001448316533417 0.04246776244228261 
[...]
<CellData  Vectors="f_8394-1"> 
<DataArray  type="Float64"  Name="f_8394-1"  NumberOfComponents="3" format="ascii">1.2703503727769819e-04  1.0792493118927472e-04 0.0000000000000000e+00  3.3810571878690741e-05  5.2702558838566281e-05 0.0000000000000000e+00  4.0152946061158976e-05  4.8961414243685165e-05 0.0000000000000000e+00  1.9992073406010184e-05  2.5385213173077872e-05 0.0000000000000000e+00  5.9440758687663705e-05  1.1212107833331403e-04 0.0000000000000000e+00  4.8579432980800956e-05  4.4582695589233139e-05 0.0000000000000000e+00  3.4732400102730622e-05  3.3827649671719058e-04 0.0000000000000000e+00  2.7236915927331319e-05  4.8552892226627614e-04 0.0000000000000000e+00  4.1461439785805363e-04  2.0176034926194903e-05 0.0000000000000000e+00  1.8815201974842720e-04  8.1263440672287178e-06 0.0000000000000000e+00  7.9082696602939339e-05  3.3117821501654322e-05 0.0000000000000000e+00  2.9411329292155125e-04  3.5236555530225312e-04 0.0000000000000000e+00  2.3194467005545813e-04  4.3483575365518541e-04 0.0000000000000000e+00  3.4201264784920749e-04  2.4914305489187778e-04 0.0000000000000000e+00  4.2738825532142173e-04  1.9842539766999531e-04 0.0000000000000000e+00  3.6587967893536322e-04  1.3547268610872499e-04 0.0000000000000000e+00  2.5144461025675141e-04  2.7926784598862885e-04 0.0000000000000000e+00  1.1254397616415671e-04  1.2862469837593464e-04 0.0000000000000000e+00  6.1955639694825647e-05  3.0643194037310758e-04 0.0000000000000000e+00  1.7599244278957443e-04  5.9469311668696157e-05 0.0000000000000000e+00  1.8736443491845241e-04  3.8064487955011934e-05 0.0000000000000000e+00  3.3771640550144937e-04  1.2635004415474625e-04 0.0000000000000000e+00  3.7200760008949962e-04  1.1888278987334439e-04 0.0000000000000000e+00  4.7065028316661201e-05  3.3432057257523791e-04 0.0000000000000000e+00  6.3301848331674042e-05  1.6517760045389461e-04 0.0000000000000000e+00  8.0158530371563495e-05  3.9395737604007951e-04 0.0000000000000000e+00  7.1494074677052911e-06  4.1752017114742528e-05 0.0000000000000000e+00  3.0443195430702942e-04  3.5190153118801059e-05 0.0000000000000000e+00  2.6957399094287213e-05  4.7655407215276956e-04 0.0000000000000000e+00  1.7848868360243668e-04  1.9682562548952519e-05 0.0000000000000000e+00  4.0917562876485405e-04  5.9009040248674141e-05 0.0000000000000000e+00  1.6233144355133391e-04  2.2846364273825163e-04 0.0000000000000000e+00  1.6944575527454348e-04  8.6766538381359584e-05 0.0000000000000000e+00  2.4848608887670777e-04  3.9561508523963261e-04 0.0000000000000000e+00  8.7313772007401727e-05  3.1678559193889250e-05 0.0000000000000000e+00  1.1278931315757448e-04  6.5860907205795007e-05 0.0000000000000000e+00  1.2592417779156977e-04  1.7231250849707153e-04 0.0000000000000000e+00  6.6010684340578630e-05  3.4893154201562528e-04 0.0000000000000000e+00  2.6076854438398259e-04  2.9693368854551613e-05 0.0000000000000000e+00  1.1082121357710251e-04  1.0466310680905764e-04 0.0000000000000000e+00  1.0733290588494934e-04  9.8963756757371321e-05 0.0000000000000000e+00  1.8324460681873306e-04  1.0800746984337269e-04 0.0000000000000000e+00  3.9197954317277616e-04  1.8080738954440436e-04 0.0000000000000000e+00  4.2851603393758808e-04  1.8922124850202370e-04 0.0000000000000000e+00  6.5733415383270344e-05  1.6411972049504046e-05 0.0000000000000000e+00  5.0738617162089878e-04  2.4963449566164139e-04 0.0000000000000000e+00  3.6249911663250407e-04  1.8110647179206334e-04 0.0000000000000000e+00  4.0738315687366197e-05  3.7813403203964295e-05 0.0000000000000000e+00  4.9254438505061263e-04  3.6639253063431963e-04 0.0000000000000000e+00  4.7032649879901145e-04  2.9302828927595635e-04 0.0000000000000000e+00  4.0614919002574884e-04  3.8485036636980163e-04 0.0000000000000000e+00  4.5194288225506023e-04  4.3465198563350557e-04 0.0000000000000000e+00  5.8578213867142522e-05  1.9086489502468859e-04 0.0000000000000000e+00  1.0911672165355506e-04  6.0792643845938922e-05 0.0000000000000000e+00  5.7284139036397408e-05  1.0866816161177852e-04 0.0000000000000000e+00  3.0659498735934569e-04  3.0958789632989231e-04 0.0000000000000000e+00  2.4384573716980620e-04  2.2196319010544131e-04 0.0000000000000000e+00  2.2991162742645109e-04  5.0956465717132967e-05 0.0000000000000000e+00  9.3204915407557587e-05  2.1462383887506414e-05 0.0000000000000000e+00  2.5085905535761272e-05  4.3307884941031508e-04 0.0000000000000000e+00  2.3967349592239315e-05  4.2145773465759461e-04 0.0000000000000000e+00  3.8495963087925193e-04  3.5780044686270661e-05 0.0000000000000000e+00  3.0012533915509030e-05  8.8485281248518429e-05 0.0000000000000000e+00  3.0673279867515043e-05  2.0127756132694210e-04 0.0000000000000000e+00  4.2123772763444458e-05  2.1774920245912435e-04 0.0000000000000000e+00  3.5646487863869573e-04  7.1960781390770104e-05 0.0000000000000000e+00  5.1972954995700327e-05  3.2794965942309638e-04 0.0000000000000000e+00  4.5045974740173008e-04  1.9501538676739355e-05 0.0000000000000000e+00  2.3290234025487353e-05  4.7241100927785030e-04 0.0000000000000000e+00  1.5831312928776914e-04  5.0398308504380203e-04 0.0000000000000000e+00  1.7212465722134799e-04  4.6648095676691983e-04 0.0000000000000000e+00  4.1086260075363077e-04  2.3199193464653101e-04 0.0000000000000000e+00  5.6203349619411144e-05  6.2555220073072165e-05 0.0000000000000000e+00  1.1960531611085871e-04  1.9375778829769651e-04 0.0000000000000000e+00  2.0216748051791100e-04  2.7765064090045266e-04 0.0000000000000000e+00  1.1372945285881082e-04  3.7558901104832974e-04 0.0000000000000000e+00  1.6466287852742406e-04  3.7831394565930598e-04 0.0000000000000000e+00  1.6059576629868570e-04  2.5938902081043942e-04 0.0000000000000000e+00  1.2507739336287002e-04  3.2611960914118903e-04 0.0000000000000000e+00  2.5410856411971178e-05  2.5166901891445111e-04 0.0000000000000000e+00  2.3427845762413620e-05  1.9878568986918713e-04 0.0000000000000000e+00  2.3865955570386639e-05  1.7947275775571388e-04 0.0000000000000000e+00  5.3526011586206538e-05  1.5526961178922435e-04 0.0000000000000000e+00  3.5949609916324725e-05  4.9220532112806458e-04 0.0000000000000000e+00  4.2903380827636977e-04  5.6492063944943403e-05 0.0000000000000000e+00  2.7705640609637996e-04  3.9086491761399293e-05 0.0000000000000000e+00  2.6725506254541252e-04  9.4799822291000439e-05 0.0000000000000000e+00  4.0679228319266642e-04  7.6939592732531409e-05 0.0000000000000000e+00  2.6475160335975184e-04  1.3691867444195536e-04 0.0000000000000000e+00  1.6509322048161563e-04  1.1890713843563950e-04 0.0000000000000000e+00  2.3565840904450595e-04  3.7806347097712080e-05 0.0000000000000000e+00  2.1275123453467316e-04  6.6282525901485391e-05 0.0000000000000000e+00  2.3465095543520652e-05  3.1200521790361210e-05 0.0000000000000000e+00  2.5972293939373839e-05  5.4525083539540056e-06 0.0000000000000000e+00  4.7329243343723007e-05  4.9089570571265836e-05 0.0000000000000000e+00  7.0356272948677049e-05  4.7098911252444828e-05 0.0000000000000000e+00  8.8355068629225407e-05  2.9401653305948675e-05 0.0000000000000000e+00  3.1260770202599480e-04  4.9964466357062926e-04 0.0000000000000000e+00  3.0393458662794485e-04  4.5840193433993338e-04 0.0000000000000000e+00  1.4614763869518843e-04  5.1360885547700256e-05 0.0000000000000000e+00  1.1601398141290965e-04  4.1267612966232950e-05 0.0000000000000000e+00  1.2882171151637530e-04  6.8363459117721715e-05 0.0000000000000000e+00  1.2975017215087828e-04  4.6175915295411509e-05 0.0000000000000000e+00  2.5704747521930059e-04  2.0080241772624059e-04 0.0000000000000000e+00  2.5071211017365437e-04  1.6860003060704612e-04 0.0000000000000000e+00  3.2820745676333853e-04  8.6595020626516615e-05 0.0000000000000000e+00  2.5801968455939735e-04  1.1959310113394903e-04 0.0000000000000000e+00  2.8352450915666161e-04  4.8509180001226312e-05 0.0000000000000000e+00  2.3946872431164558e-04  2.8290230919978308e-05 0.0000000000000000e+00  2.0268372930303168e-05  4.0770655744899617e-04 0.0000000000000000e+00  2.8657262209330976e-05  4.1423054808360717e-04 0.0000000000000000e+00  4.7467444105495082e-04  1.8029431949052711e-05 0.0000000000000000e+00  4.5630272446753008e-04  3.8436633868313221e-05 0.0000000000000000e+00  3.5177985252233152e-04  2.0576240171706322e-05 0.0000000000000000e+00  3.3922217014336340e-04  1.1406738235293638e-05 0.0000000000000000e+00  3.5483234149846429e-05  3.3860493708148397e-04 0.0000000000000000e+00  6.1293414991203657e-05  2.5160153691302121e-04 0.0000000000000000e+00  4.6951421755309758e-04  5.5182304517098279e-05 0.0000000000000000e+00  3.8492073783697725e-04  2.5358048707362578e-04 0.0000000000000000e+00  3.2996320591726128e-04  2.9394058456389883e-04 0.0000000000000000e+00  1.4334927002206360e-04  4.0485541035024367e-04 0.0000000000000000e+00  1.4075908560990310e-04  4.7139928364654576e-04 0.0000000000000000e+00  5.2101268361694718e-05  1.7921541417048899e-04 0.0000000000000000e+00  8.8339286289818833e-05  2.1668679449717625e-04 0.0000000000000000e+00  2.4499445350814488e-05  1.6660262562823150e-04 0.0000000000000000e+00  4.0204398183383499e-05  1.7539900256908564e-04 0.0000000000000000e+00  4.3643700769936265e-04  1.4003678169114021e-04 0.0000000000000000e+00  4.6867149518048720e-04  1.7088188049343693e-04 0.0000000000000000e+00  1.1668579551270721e-04  4.4248979267327691e-04 0.0000000000000000e+00  1.1821517512055402e-04  2.5719656224917225e-04 0.0000000000000000e+00  1.8116936817380146e-04  2.0327086286519018e-04 0.0000000000000000e+00  2.0790435944929590e-04  1.8732693595718115e-04 0.0000000000000000e+00  1.9112809937689277e-04  4.0171414517101091e-04 0.0000000000000000e+00  1.7137692833516926e-04  3.9317684356309846e-04 0.0000000000000000e+00  8.9173545784027166e-05  3.9856898143494234e-04 0.0000000000000000e+00  1.0663684496483637e-04  4.4301747209560580e-04 0.0000000000000000e+00  2.3217162280637991e-04  2.1632859417726672e-04 0.0000000000000000e+00  1.5399343602347541e-04  2.3433393064189670e-04 0.0000000000000000e+00  2.6324950618088986e-04  4.0426621158003420e-05 0.0000000000000000e+00  2.8727406130580490e-04  5.0649982785514925e-05 0.0000000000000000e+00  3.1290085056741009e-05  4.9673999614046448e-05 0.0000000000000000e+00  3.0418670114566870e-05  2.6583200403651704e-05 0.0000000000000000e+00  1.9914364594513972e-05  6.2207857929674808e-05 0.0000000000000000e+00  3.8515234741843930e-05  3.8825718015998649e-05 0.0000000000000000e+00  3.6446942703892300e-05  1.5888364619730618e-04 0.0000000000000000e+00  4.3347338697587626e-05  9.9902659076870601e-05 0.0000000000000000e+00  4.6430813556959871e-04  2.3704326274734158e-04 0.0000000000000000e+00  3.6218017182763261e-04  2.1015797130658788e-04 0.0000000000000000e+00  2.3223883724644276e-04  4.0264564629012448e-04 0.0000000000000000e+00  2.5740177643883790e-04  4.7322566922301736e-04 0.0000000000000000e+00  3.9501352423141126e-05  2.8034907803170853e-04 0.0000000000000000e+00  5.4207663179667762e-05  2.4046679981712166e-04 0.0000000000000000e+00  2.2213774332648998e-05  1.0580567438246897e-04 0.0000000000000000e+00  1.6779623279098282e-05  6.7686476409608854e-05 0.0000000000000000e+00  2.3618817128119000e-05  9.5904666204929136e-05 0.0000000000000000e+00  6.4441330765228455e-05  1.5493680367114197e-04 0.0000000000000000e+00  8.1430208050991092e-05  1.2521910354298813e-04 0.0000000000000000e+00  1.3926704056067937e-04  3.3166408728962047e-05 0.0000000000000000e+00  1.3938502573755939e-04  8.5720564349701017e-05 0.0000000000000000e+00  1.0127151280225698e-04  1.3593556897516863e-04 0.0000000000000000e+00  8.9827427056785123e-05  7.8809375539022985e-05 0.0000000000000000e+00  1.6774927505311152e-04  1.0216756043684647e-04 0.0000000000000000e+00  1.5051982469162361e-04  1.5630303481492164e-04 0.0000000000000000e+00  4.3242897505778495e-04  1.1148343830130092e-04 0.0000000000000000e+00  3.5422603278105887e-04  1.3487650602435301e-04 0.0000000000000000e+00  3.2320096314124189e-04  3.2253281626433737e-04 0.0000000000000000e+00  3.0130436402849031e-04  3.3525884366117413e-04 0.0000000000000000e+00  2.6396709079520240e-04  1.7698223640973216e-04 0.0000000000000000e+00  2.0997529321522816e-04  1.2989876361645594e-04 0.0000000000000000e+00  5.5593072808573611e-05  1.2789029366853285e-04 0.0000000000000000e+00  4.7149341368922949e-05  8.4708501584789453e-05 0.0000000000000000e+00  8.8790768845013895e-05  4.1905293967583741e-04 0.0000000000000000e+00  6.3228152018691619e-05  5.1719615665133376e-04 0.0000000000000000e+00  4.3090890676510596e-04  5.2963293592392250e-04 0.0000000000000000e+00  4.0581176440237306e-04  4.7232746404507107e-04 0.0000000000000000e+00  1.3958545103498276e-04  1.6076580681437992e-04 0.0000000000000000e+00  1.1709293966790150e-04  2.0440319250997522e-04 0.0000000000000000e+00  2.5462623540180838e-04  4.8127379846394967e-05 0.0000000000000000e+00  1.7522268716917814e-04  6.0434045853198630e-05 0.0000000000000000e+00  4.7576816283982995e-04  4.5578549696912097e-04 0.0000000000000000e+00  4.4369591199306849e-04  4.6050653921424466e-04 0.0000000000000000e+00  3.0043316625585075e-05  7.4795027063769646e-05 0.0000000000000000e+00  2.3679977064217461e-05  8.6600413097635720e-05 0.0000000000000000e+00  1.4396403023758699e-04  4.9969340738637404e-04 0.0000000000000000e+00  2.0403573635571721e-04  5.0366895542344715e-04 0.0000000000000000e+00  2.3815578742597971e-04  4.6630964661309319e-04 0.0000000000000000e+00  2.0560919200994897e-04  4.8881759185887995e-04 0.0000000000000000e+00  3.0259736320491015e-04  1.9148139608737806e-05 0.0000000000000000e+00  1.0713132257237764e-04  5.0899538587053674e-05 0.0000000000000000e+00  1.1356050730427505e-04  5.2697927347307974e-05 0.0000000000000000e+00  2.5240579574638635e-04  2.1479012014830417e-04 0.0000000000000000e+00  2.4381545438462401e-04  2.4217623249071958e-04 0.0000000000000000e+00  6.5789166414058779e-05  2.1153941240187736e-04 0.0000000000000000e+00  5.3241537253031221e-05  2.0734641431813643e-04 0.0000000000000000e+00  2.6627745385373084e-04  2.1106894693983045e-05 0.0000000000000000e+00  2.6631108822352373e-04  2.8902470801874874e-05 0.0000000000000000e+00  2.3543771861951054e-04  4.6816177373306825e-05 0.0000000000000000e+00  2.2274079933656390e-04  4.0256207826175237e-05 0.0000000000000000e+00  1.3349688187573421e-04  3.1973336837305092e-04 0.0000000000000000e+00  1.2206152515813074e-04  2.4790724269421917e-04 0.0000000000000000e+00  1.0782646578114387e-04  2.4471974672756776e-04 0.0000000000000000e+00  1.2160182149718475e-04  2.7606554758199356e-04 0.0000000000000000e+00  3.8743403818989374e-05  3.5857870451614351e-05 0.0000000000000000e+00  3.3904271311957607e-05  7.7293218197485152e-05 0.0000000000000000e+00  1.8625766705412925e-04  1.7768388109125750e-04 0.0000000000000000e+00  2.1019543446681603e-04  1.8306494253349768e-04 0.0000000000000000e+00  1.0104172592437272e-04  1.0388686596317558e-04 0.0000000000000000e+00  3.7303852211289457e-05  1.2786902957080489e-04 0.0000000000000000e+00  9.9409979676234162e-05  1.8912948240304536e-05 0.0000000000000000e+00  1.5268101762128231e-04  5.1445561520757856e-05 0.0000000000000000e+00  1.5985124006044743e-04  3.3806148984444398e-05 0.0000000000000000e+00  1.2528846028276832e-04  4.6198736246309226e-05 0.0000000000000000e+00  9.4522849435696207e-05  5.7669963533840733e-05 0.0000000000000000e+00  1.2199177144920433e-04  4.4922353200209790e-05 0.0000000000000000e+00  9.9079397460784613e-05  3.0532798992772157e-05 0.0000000000000000e+00  4.8170017818463447e-04  2.5641500176854545e-04 0.0000000000000000e+00  4.8143582491051961e-04  2.9724498290230290e-04 0.0000000000000000e+00  4.4614830440109802e-04  2.4926194450883478e-04 0.0000000000000000e+00  4.5906885022617481e-04  4.6306530863222186e-04 0.0000000000000000e+00  2.9374849285103763e-04  5.1323165836726701e-04 0.0000000000000000e+00  2.6128326171023385e-05  3.1105319857419516e-04 0.0000000000000000e+00  2.6086521715842271e-05  3.0869972660369708e-04 0.0000000000000000e+00  3.7733040547178445e-04  4.7035569872732377e-05 0.0000000000000000e+00  4.7190718967690855e-04  3.4890836054507668e-05 0.0000000000000000e+00  1.9610419949037298e-04  1.1761461778565403e-04 0.0000000000000000e+00  1.1665384886947633e-04  9.0942386792866586e-05 0.0000000000000000e+00  5.0645347204401339e-05  3.0163201942212585e-05 0.0000000000000000e+00  3.7415483106760942e-05  4.1086602162717563e-05 0.0000000000000000e+00  3.7758132660873392e-04  3.9170338810340881e-04 0.0000000000000000e+00  4.3030943724994624e-04  3.9520799049491169e-04 0.0000000000000000e+00  8.9077228731316061e-05  7.6673045437265186e-05 0.0000000000000000e+00  1.3740355843163874e-04  7.0163079860939922e-05 0.0000000000000000e+00  6.1029441361079169e-05  2.9281013668315775e-04 0.0000000000000000e+00  7.4529962145709110e-05  2.1512708210543884e-04 0.0000000000000000e+00  3.7038769264283324e-04  4.8314296473954922e-05 0.0000000000000000e+00  4.1457967974453349e-04  6.1351677944716047e-05 0.0000000000000000e+00  4.2596279917236424e-04  2.7952174509660448e-05 0.0000000000000000e+00  3.1381696919066573e-04  1.7927377290956218e-05 0.0000000000000000e+00  2.6436054850171502e-04  1.4888192101110002e-05 0.0000000000000000e+00  2.7179010800319574e-04  1.2923001810283567e-04 0.0000000000000000e+00  3.1279998370008509e-04  7.0813593723467933e-05 0.0000000000000000e+00  4.6791052563563759e-04  4.0222079060383008e-04 0.0000000000000000e+00  1.5694160195568404e-04  3.8285835257206570e-04 0.0000000000000000e+00  1.4648576719183021e-04  3.0166594022617297e-04 0.0000000000000000e+00  4.6133544385417764e-04  9.0322949995400969e-05 0.0000000000000000e+00  4.2566051611184376e-04  1.1289010648438924e-04 0.0000000000000000e+00  5.5841892560127865e-04  4.4463768992494339e-06 0.0000000000000000e+00  1.9087224592933276e-05  4.8399749125003935e-04 0.0000000000000000e+00  5.3473998646045056e-06  5.5268975163239140e-04 0.0000000000000000e+00  3.8998072855495422e-05  1.1338372175182036e-04 0.0000000000000000e+00  2.1692066111432746e-05  1.6429110481028136e-04 0.0000000000000000e+00  2.3412688699136445e-05  1.0489199112113946e-04 0.0000000000000000e+00  2.7410025928468506e-05  8.7872076144843714e-05 0.0000000000000000e+00  5.6150037709473188e-05  1.2289509016013645e-04 0.0000000000000000e+00  4.4591030680191447e-05  1.9330196606846028e-04 0.0000000000000000e+00  5.5148854964089205e-05  5.4494583737328484e-05 0.0000000000000000e+00  4.4825712529523954e-05  2.1388671233059040e-05 0.0000000000000000e+00  3.5932790517208599e-05  4.8647524069527477e-05 0.0000000000000000e+00  4.5850371207375564e-05  2.1350332147548473e-05 0.0000000000000000e+00  2.7512904826108061e-04  2.6770407475983456e-04 0.0000000000000000e+00  3.1323762930195062e-04  2.5980070050273538e-04 0.0000000000000000e+00  2.5875227423940329e-05  -3.2810151425645920e-06 0.0000000000000000e+00  2.6778063981214163e-05  1.8784827680246429e-07 0.0000000000000000e+00  2.4390876926938578e-05  5.0170514131653709e-05 0.0000000000000000e+00  4.2767970433997549e-04  3.3217156692190051e-04 0.0000000000000000e+00  3.9769456840952434e-04  3.9137427995832990e-04 0.0000000000000000e+00  6.6575298579526899e-05  5.8168658869476369e-05 0.0000000000000000e+00  4.2887436737975623e-05  4.7059153835207415e-05 0.0000000000000000e+00  8.3816407481911466e-05  3.2801928213171730e-05 0.0000000000000000e+00  1.6084326744232103e-04  2.7337962254324845e-05 0.0000000000000000e+00  6.6187421318031863e-05  1.2351131300241216e-04 0.0000000000000000e+00  3.2007079202038693e-05  1.5418280004621189e-04 0.0000000000000000e+00  5.9431384341156910e-05  1.7060250001639805e-04 0.0000000000000000e+00  6.7913447029993492e-05  1.6480040321165929e-04 0.0000000000000000e+00  7.8930079367298546e-05  3.6044909413779103e-04 0.0000000000000000e+00  1.0127377704799587e-04  3.6511480493189131e-04 0.0000000000000000e+00  8.6958882996495342e-05  2.5323806855543865e-04 0.0000000000000000e+00  7.6112176271141203e-05  3.1174088552517144e-04 0.0000000000000000e+00  1.6551920815533695e-04  5.1269064368219598e-04 0.0000000000000000e+00  1.3786889908278527e-04  5.4074511235799880e-04 0.0000000000000000e+00  5.04