<?xml version="1.0"?>
<VTKFile type="UnstructuredGrid"  version="0.1"  >
<UnstructuredGrid>
<Piece  NumberOfPoints="1385" NumberOfCells="2640">
<Points>
<DataArray  type="Float64"  NumberOfComponents="3"  format="ascii">0 0 0  1 0 0  1 1 0  0 1 0  0.5 0 0  1 0.5 0  0.5 1 0  0 0.5 0  0.5 0.5 0  0 0.25 0  0.25 0 0  0.25 1 0  0 0.75 0  1 0.25 0  0.75 0 0  1 0.75 0  0.75 1 0  0.7083333333333333 0.2916666666666667 0  0.2916666666666666 0.7083333333333334 0  0.375 0.25 0  0.75 0.625 0  0.2569444444444444 0.4652777777777778 0  0.5366379310344828 0.7535919540229885 0  0.1875 0.1875 0  0.8125 0.8125 0  0.869047619047619 0.375 0  0.1450441919191919 0.6052714646464646 0  0.375 0.8690476190476191 0  0.5526960784313725 0.1825980392156862 0  0.8385416666666666 0.1614583333333334 0  0.1614583333333333 0.8385416666666667 0  0.6736111111111112 0.4652777777777778 0  0.1367521367521368 0.3477564102564102 0  0.6570970491253563 0.8648656830417855 0  0.5102479397556124 0.3386260301221938 0  0.3654513888888889 0.5737847222222222 0  0.6929750044954185 0.1362784921584263 0  0.388576102743835 0.411911725237599 0  0.6091269841269842 0.5942460317460317 0  0.875 0.6875 0  0.427278890279516 0.119889445139758 0  0.8544456845238095 0.5213913690476191 0  0.125 0 0  0 0.125 0  1 0.875 0  0.875 1 0  0.1280008648150532 0.4769292340226777 0  0.2695382451711197 0.3321750950221553 0  0.7031567235715964 0.7447810921428012 0  0.625 0 0  0.375 0 0  0.125 1 0  0.875 0 0  0 0.375 0  0 0.625 0  1 0.375 0  0.375 1 0  1 0.125 0  0 0.875 0  0.625 1 0  1 0.625 0  0.2979288363930608 0.1201429454643536 0  0.410919540229885 0.7484605911330049 0  0.5325041980395562 0.878905151526474 0  0.4831670727569156 0.6331060043826487 0  0.1735997378973042 0.7204747378973043 0  0.2534919507575758 0.5772372159090909 0  0.2633928571428572 0.8876488095238095 0  0.8199404761904761 0.2730654761904762 0  0.75830270586982 0.3919383189517417 0  0.5750282248382511 0.4237522353023667 0  0.6008360210023379 0.2794828358598495 0  0.08163442644334186 0.6821295860397322 0  0.08333333333333333 0.1875 0  0.2028380815996574 0.08844602719988583 0  0.2766521142611967 0.2325436572164097 0  0.90625 0.78125 0  0.890625 0.890625 0  0.7545696325008384 0.8973565441669461 0  0.5625 0.08086590340834317 0  0.09077380952380953 0.09077380952380952 0  0.4610923478694773 0.209034015149656 0  0.7542527598351648 0.5248380520595106 0  0.6459235536037465 0.3619913988405765 0  0.7560381768882634 0.20506142233852 0  0.07073252688172042 0.8125 0  0.0924753097241701 0.9078102849914793 0  0.9292674731182795 0.1875 0  0.9075246902758297 0.09218971500852073 0  0.8125 0.07073252688172045 0  0.2400955776842301 0.7869705776842302 0  0.9121050213379069 0.2781978201831695 0  0.7916878157143976 0.7239689078571988 0  0.9345238095238094 0.4375 0  0.4375 0.9345238095238095 0  0.3725616989755203 0.6651895248862173 0  0.06536271996350887 0.5625 0  0.9348362560379583 0.5625 0  0.456646798987055 0.8277247094351965 0  0.1875 0.9355758238725954 0  0.6169761231634859 0.6939779188977889 0  0.6226854751147515 0.7827911461419014 0  0.3305695598137626 0.7901697871282585 0  0.5865305325818898 0.5101085479043448 0  0.6622701297028378 0.2177663989757395 0  0.1354166666666667 0.2591702279202279 0  0 0.3125 0  0.2094429575680048 0.3936361846162499 0  0.836666296419157 0.607917407161686 0  0.6875 1 0  0.214261555450504 0.6492551722020035 0  0 0.4375 0  0.07731537126068377 0.40625 0  0.3427725432967068 0.4879566233699599 0  0.3550792513951871 0.3331953632609953 0  0.4462473953896857 0.2887834789342508 0  0.4747801464819794 0.417386052030127 0  0.8229836475148948 0.4443292349237342 0  0.7322605135514757 0.8199240278289671 0  0.6756431877205955 0.5468989748126787 0  0.1968419507215863 0.5194573482612496 0  0.3285590277777778 0.9345238095238095 0  0.8125 1 0  0.4198917601920009 0.5134893045331258 0  0.5232405503206691 0.2595791787880157 0  1 0.9375 0  0.1987510870015086 0.3025185951894431 0  0.5625 1 0  0.6005390654136388 0.9228110509230952 0  0.6411254848194414 0.07704872765442942 0  0.3357233162523242 0.1855113224530532 0  0.6730653396610877 0.6393887462324165 0  0.310966987234063 0.6240019765311626 0  0.7368737836204349 0.07457755202327881 0  0.6192316414418171 0.1485238406378594 0  0.5432429670607106 0.678552703844006 0  0.4754371679695679 0.7103946803120881 0  0.07501324890749672 0.3043839897335739 0  0.5358146975860403 0.5688321463205916 0  0.3115271739500156 0.3982137365971444 0  0.3625191397122174 0.0767854603650549 0  0.5024029442563831 0.1264128223758444 0  0.4375 0 0  0.4699946908887376 0.06379961173775725 0  0.9375 0.71875 0  0.9272105898044465 0.635671179608893 0  0.9375 1 0  0.6690971819568612 0.9331530898202766 0  0.1073454944778885 0.7499206387638554 0  0.8699082999280406 0.2232403652524313 0  0.5773118091863964 0.3548027349159383 0  0.1354166666666667 0.1428571428571428 0  0.3125 0 0  0.8241684193077341 0.9257452995055244 0  0.4352314948354036 0.3586940847489378 0  0.4351301473778832 0.5819726043539077 0  0.8073232928518163 0.3419398170341962 0  0.7775949246947366 0.1298519409204575 0  0.6875 0 0  0.7413513991851041 0.457933324954483 0  0.939453125 0.841796875 0  0.5630355154606987 0.8171875156478349 0  0.9345238095238095 0.3461466592368577 0  0.9375 0 0  1 0.0625 0  0.0625 1 0  0 0.9375 0  0.06552178593177167 0.4969053669623468 0  0.1424866619031703 0.4130277709291224 0  0.1275287182444726 0.5422946908002588 0  0.2637686595586339 0.06413888464529549 0  0.2524263535491086 0.1697437503243817 0  0.7367218397988525 0.6888573970660841 0  0.0625 0 0  0 0.0625 0  0.8463594539285995 0.7578283617857982 0  0.3128751192101563 0.2851997374369947 0  0.4015281788351144 0.1806421385113692 0  0.1910251795116588 0.4553332197174453 0  0.287797471442006 0.5222621440543902 0  0.3962628745986055 0.8097380085535307 0  0.3505895299554843 0.7304878890838692 0  0.5019151500495276 0.9356042615328103 0  0.9374389419410134 0.4999931039076005 0  0.3125 1 0  0.1875 1 0  1 0.5625 0  0.4375 1 0  1 0.3125 0  1 0.4375 0  0.8125 0 0  1 0.1875 0  0.5625 0 0  0.1875 0 0  0 0.1875 0  0 0.5625 0  0 0.6875 0  0 0.8125 0  1 0.6875 0  1 0.8125 0  0.8021696218581627 0.6612893947866073 0  0.06154922295426143 0.6239401126946708 0  0.9359375 0.9359375 0  0.4666158024849896 0.7691515918155014 0  0.2318201265217025 0.7064974250277525 0  0.1565954253579966 0.6635489312486841 0  0.1598132503680848 0.7787147500325552 0  0.3146529991605639 0.8510876378205265 0  0.1461873209418733 0.05982804528877814 0  0.06109554988524315 0.2446551776247686 0  0.8054950308560754 0.5564226538848541 0  0.470541749491976 0.8853316336952531 0  0.6948472567465137 0.4042308563372457 0  0.8802828472348889 0.4658893256343853 0  0.6788075634946739 0.7974194205806069 0  0.2155048659603867 0.2428201584940968 0  0.8131223143423806 0.2132171049028394 0  0.4330798005432235 0.6671274900735726 0  0.6015279126162613 0.2187368078743274 0  0.8061636571464289 0.8703766630361714 0  0.7008230445061776 0.3478568388444072 0  0.8638466246958771 0.3147095987735538 0  0.204801534004265 0.8789209409594009 0  0.2449006736431132 0.9424182882803838 0  0.7611268409371427 0.2643056884799992 0  0.7552800864046191 0.7678006649959446 0  0.5983639638906616 0.864113435029236 0  0.1956559506814437 0.577281203577426 0  0.3527670268164207 0.1320469097565204 0  0.7530364577483248 0.3262386077083089 0  0.4535919187979363 0.4690107087451527 0  0.8824869791666666 0.8336588541666666 0  0.8814453125 0.9451171875 0  0.5582987942628019 0.622421666543858 0  0.6817532446064828 0.6939001801354731 0  0.3830295138888889 0.9450968952922078 0  0.4140603937012541 0.05211333372716105 0  0.5535864501303013 0.3060591985391672 0  0.6560130086346878 0.2729726562211558 0  0.890203140221684 0.5948314305427268 0  0.7043857725999024 0.593980890020804 0  0.5105843922695152 0.8016828014338627 0  0.05365910753708378 0.7315110031682004 0  0.616904573672261 0.4621186633436136 0  0.5338511646455415 0.387875898899613 0  0.5231769258947843 0.4477682463140762 0  0.650302973237622 0.7370722302085519 0  0.3927483139621257 0.4662414504529014 0  0.8034595960585199 0.4972538342758211 0  0.7738337841682438 0.9496376207663251 0  0.7193737507158268 0.954685447650112 0  0.482525916480686 0.5528257169991676 0  0.2533501157346781 0.2809495420003238 0  0.3118487924482243 0.5702930126570319 0  0.6257598847669529 0.4104163315430518 0  0.1354166666666667 0.1955605158730158 0  0.04166666666666666 0.15625 0  0.3956448985530264 0.6174149462065157 0  0.8102897701818546 0.3938784238208349 0  0.2641154190013625 0.8344469561943118 0  0.642852220770013 0.5068794586563659 0  0.05271458179508221 0.355846947336007 0  0.7021551360070266 0.8921457280225779 0  0.5692125776683765 0.1328512638850284 0  0.5206162811937602 0.04865158770992991 0  0.6001838442201555 0.04540556991297563 0  0.2597716608242787 0.4118346398477178 0  0.4040584599473195 0.3179589136784675 0  0.1480337679295207 0.8941560631483065 0  0.1344356707112281 0.9466251177415842 0  0.7114696411829317 0.4983917389078826 0  0.7585704698442475 0.5751926345944629 0  0.2189131956390871 0.04022068508159698 0  0.2476935455192043 0.1123642267635843 0  0.185995005654517 0.1365524537205238 0  0.6223414373308711 0.643380839165121 0  0.5732602596637543 0.7190051747306219 0  0.268358222364537 0.6586246524467934 0  0.3265879848129173 0.2369791782191225 0  0.1267095595787346 0.7034787238999181 0  0.1115202922226038 0.6421997933884982 0  0.3128688392940203 0.07260997451790079 0  0.550724900485678 0.9253360991633187 0  0.7142608810459105 0.2384904702214873 0  0.7045869185243887 0.1871826897887429 0  0.890625 0.734375 0  0.953125 0.765625 0  0.2111812642821677 0.8286209446459138 0  0.9590293078204457 0.09375 0  0.953431269039847 0.1435719386408004 0  0.04097069217955424 0.90625 0  0.04656873096015299 0.8564280613591996 0  0.1078743037981226 0.8541621766048062 0  0.8921256962018773 0.1458378233951939 0  0.8521576979194619 0.1084496634207678 0  0.8655663982740958 0.05464346096571447 0  0.04005659640905543 0.09375 0  0.1001448316533417 0.04246776244228261 
[...]
<CellData  Vectors="f_8394-1"> 
<DataArray  type="Float64"  Name="f_8394-1"  NumberOfComponents="3" format="ascii">1.5845686584318170e-04  1.3289890423540343e-04 0.0000000000000000e+00  3.6614996185685611e-05  6.3497420619573384e-05 0.0000000000000000e+00  4.9216544368493362e-05  5.8425606461109342e-05 0.0000000000000000e+00  2.2527237164542277e-05  2.6852334941454451e-05 0.0000000000000000e+00  7.0803809936765842e-05  1.3723344923914971e-04 0.0000000000000000e+00  5.6585552692948470e-05  4.7978548159975317e-05 0.0000000000000000e+00  3.5852802598578033e-05  4.3129531669867791e-04 0.0000000000000000e+00  3.3257960734045308e-05  6.1473731708135777e-04 0.0000000000000000e+00  5.2610725314472366e-04  2.0732922767282637e-05 0.0000000000000000e+00  2.3775661343173127e-04  1.0975211310645327e-05 0.0000000000000000e+00  9.7222329725694636e-05  3.7124666097609733e-05 0.0000000000000000e+00  3.7456441491790182e-04  4.4833598071297720e-04 0.0000000000000000e+00  2.9519753150353273e-04  5.5279853787996958e-04 0.0000000000000000e+00  4.3417176233361557e-04  3.1688049240488208e-04 0.0000000000000000e+00  5.4251067981232433e-04  2.5258863361991195e-04 0.0000000000000000e+00  4.6302145312996702e-04  1.6976525021631604e-04 0.0000000000000000e+00  3.1905834222362351e-04  3.5458712343272472e-04 0.0000000000000000e+00  1.4073810921083477e-04  1.5863579278827734e-04 0.0000000000000000e+00  7.5734450196158270e-05  3.8514729803215475e-04 0.0000000000000000e+00  2.2128332278295812e-04  6.9966656899378969e-05 0.0000000000000000e+00  2.3665804112922394e-04  4.2808021161586298e-05 0.0000000000000000e+00  4.2802577603711349e-04  1.5908777933118292e-04 0.0000000000000000e+00  4.7073607781536984e-04  1.5067954968943440e-04 0.0000000000000000e+00  5.8228810107546209e-05  4.2354706583584299e-04 0.0000000000000000e+00  7.9885043164687873e-05  2.0552532586253224e-04 0.0000000000000000e+00  1.0037807490339685e-04  4.9588418219437302e-04 0.0000000000000000e+00  7.4196929448182263e-06  4.1958756128002936e-05 0.0000000000000000e+00  3.8244370941418988e-04  3.9593456987240122e-05 0.0000000000000000e+00  3.3868507255285561e-05  6.0315647125226809e-04 0.0000000000000000e+00  2.2669592779048190e-04  2.3727324859248875e-05 0.0000000000000000e+00  5.1647100726288919e-04  7.2818654840546107e-05 0.0000000000000000e+00  2.0740712793310549e-04  2.8893243805171029e-04 0.0000000000000000e+00  2.1795966208409126e-04  1.0732828357682240e-04 0.0000000000000000e+00  3.1604490467843386e-04  5.0313256169434814e-04 0.0000000000000000e+00  1.0516067035672266e-04  3.9429089285621517e-05 0.0000000000000000e+00  1.3152270487710817e-04  7.9442213520371796e-05 0.0000000000000000e+00  1.5514948704672976e-04  2.1326087528990444e-04 0.0000000000000000e+00  8.0323835874308459e-05  4.4268468717377875e-04 0.0000000000000000e+00  3.3367471913924707e-04  3.0158961846754945e-05 0.0000000000000000e+00  1.3616946749882104e-04  1.3229367110375705e-04 0.0000000000000000e+00  1.3121156858850294e-04  1.2554138298474262e-04 0.0000000000000000e+00  2.3070169122630559e-04  1.3327664670055071e-04 0.0000000000000000e+00  4.9771764333218099e-04  2.2968568290359552e-04 0.0000000000000000e+00  5.4394559776731969e-04  2.4085073524929453e-04 0.0000000000000000e+00  8.0903142646337174e-05  1.7160304677585104e-05 0.0000000000000000e+00  6.4539775245702662e-04  3.1785741925991807e-04 0.0000000000000000e+00  4.5932835022239151e-04  2.3055280054773655e-04 0.0000000000000000e+00  4.7786967331552980e-05  3.8113493986171601e-05 0.0000000000000000e+00  6.2780433307169396e-04  4.6799501198339672e-04 0.0000000000000000e+00  5.9884469967190729e-04  3.7355409650458314e-04 0.0000000000000000e+00  5.1848909247396047e-04  4.9028300180843675e-04 0.0000000000000000e+00  5.7750727321050218e-04  5.5410606130011446e-04 0.0000000000000000e+00  6.7551197974717909e-05  2.3727319797311612e-04 0.0000000000000000e+00  1.2568249614033024e-04  7.3571360855638059e-05 0.0000000000000000e+00  6.7871046494210393e-05  1.3559170426358911e-04 0.0000000000000000e+00  3.9034472896285974e-04  3.9380946994323809e-04 0.0000000000000000e+00  3.0923770764249426e-04  2.8173455261927045e-04 0.0000000000000000e+00  2.9261774474967128e-04  5.2899215290634586e-05 0.0000000000000000e+00  1.1483923418714539e-04  2.4589530839434138e-05 0.0000000000000000e+00  2.7178347065158991e-05  5.4634286327388836e-04 0.0000000000000000e+00  2.9952872726730598e-05  5.3329529711189318e-04 0.0000000000000000e+00  4.8823944535091463e-04  3.6157355026038508e-05 0.0000000000000000e+00  3.0116000226027443e-05  1.0634829835787990e-04 0.0000000000000000e+00  3.3775232380775261e-05  2.5267635605564278e-04 0.0000000000000000e+00  4.2143799954794727e-05  2.7423216367313739e-04 0.0000000000000000e+00  4.5284912526242902e-04  9.1385221957024408e-05 0.0000000000000000e+00  6.2961938155758885e-05  4.1334257462956488e-04 0.0000000000000000e+00  5.7059730314681228e-04  2.0227361749410356e-05 0.0000000000000000e+00  2.8424617645663992e-05  5.9917454746310876e-04 0.0000000000000000e+00  2.0160024179135188e-04  6.4035778070583227e-04 0.0000000000000000e+00  2.1886812478733687e-04  5.9227485702580357e-04 0.0000000000000000e+00  5.2198988039847953e-04  2.9544810166345675e-04 0.0000000000000000e+00  6.0743160635207688e-05  7.6562695121874683e-05 0.0000000000000000e+00  1.5304865423190341e-04  2.4280056097098437e-04 0.0000000000000000e+00  2.5708589781386719e-04  3.5069895998485407e-04 0.0000000000000000e+00  1.4366814777381381e-04  4.7522194193311339e-04 0.0000000000000000e+00  2.0923091453390512e-04  4.8038154815379465e-04 0.0000000000000000e+00  2.0178162343181762e-04  3.2662416054549527e-04 0.0000000000000000e+00  1.5703338003734645e-04  4.1060924032737566e-04 0.0000000000000000e+00  2.6613764084512290e-05  3.2204090784075548e-04 0.0000000000000000e+00  2.5037118825859418e-05  2.5430716255557312e-04 0.0000000000000000e+00  2.7319128284702455e-05  2.2755372022680698e-04 0.0000000000000000e+00  6.5225836536947731e-05  1.9387491577118005e-04 0.0000000000000000e+00  4.5954505206190434e-05  6.2282981358685423e-04 0.0000000000000000e+00  5.4147359321498505e-04  6.9816647635471886e-05 0.0000000000000000e+00  3.5244875060135592e-04  4.5048955435824844e-05 0.0000000000000000e+00  3.3614036798489133e-04  1.1757726097965027e-04 0.0000000000000000e+00  5.1435943078728165e-04  9.8302859548201707e-05 0.0000000000000000e+00  3.3124382985470242e-04  1.7124275651816026e-04 0.0000000000000000e+00  2.0650826068729296e-04  1.4625594280607074e-04 0.0000000000000000e+00  2.9059785719234149e-04  4.2627679403275999e-05 0.0000000000000000e+00  2.6743614316512891e-04  8.0810756698884955e-05 0.0000000000000000e+00  2.3615174722531121e-05  4.0119924482577548e-05 0.0000000000000000e+00  3.0426870323156588e-05  7.5593819897356453e-06 0.0000000000000000e+00  5.4448758006776085e-05  5.6159211476239808e-05 0.0000000000000000e+00  8.3324504075549927e-05  5.1358204498600561e-05 0.0000000000000000e+00  1.0791489226606194e-04  3.2708033215808514e-05 0.0000000000000000e+00  3.9811017179145147e-04  6.3653697462646747e-04 0.0000000000000000e+00  3.8740036902200527e-04  5.8421230441578682e-04 0.0000000000000000e+00  1.8441631018774272e-04  5.2604704324779007e-05 0.0000000000000000e+00  1.4995795531497880e-04  4.2061369618100323e-05 0.0000000000000000e+00  1.6388048192910462e-04  7.9687091438055245e-05 0.0000000000000000e+00  1.5800058800233141e-04  5.3831552132497932e-05 0.0000000000000000e+00  3.2519406035838903e-04  2.5361502384973090e-04 0.0000000000000000e+00  3.1596517895876873e-04  2.1385019407365254e-04 0.0000000000000000e+00  4.1651332637438095e-04  1.1085772423481027e-04 0.0000000000000000e+00  3.2457125992917487e-04  1.4933475103862963e-04 0.0000000000000000e+00  3.5960741860725602e-04  5.5569688033195883e-05 0.0000000000000000e+00  3.0492341935249329e-04  3.1518096716596272e-05 0.0000000000000000e+00  2.1160757314757977e-05  5.1815543491609312e-04 0.0000000000000000e+00  3.1035653760327690e-05  5.2382415100979505e-04 0.0000000000000000e+00  5.9992049760694988e-04  2.0945097626639642e-05 0.0000000000000000e+00  5.7598494272955900e-04  4.5726248261138700e-05 0.0000000000000000e+00  4.4588872097737944e-04  2.1446734249857601e-05 0.0000000000000000e+00  4.2911841729979095e-04  1.1918298587132216e-05 0.0000000000000000e+00  4.0063546869082617e-05  4.3031298823404507e-04 0.0000000000000000e+00  7.3630914490689566e-05  3.1700588192659309e-04 0.0000000000000000e+00  5.9281565316859290e-04  6.8217365586329914e-05 0.0000000000000000e+00  4.8962195591869596e-04  3.2301802341556235e-04 0.0000000000000000e+00  4.1958331739939687e-04  3.7459418667743963e-04 0.0000000000000000e+00  1.8214296766372738e-04  5.1238869633872378e-04 0.0000000000000000e+00  1.7882536585334956e-04  5.9823425375322623e-04 0.0000000000000000e+00  6.0472048137332553e-05  2.3018759214730837e-04 0.0000000000000000e+00  1.0883847501640944e-04  2.7520882825846045e-04 0.0000000000000000e+00  2.4982951448263660e-05  2.1127344663801837e-04 0.0000000000000000e+00  4.1648123519213268e-05  2.1778612999885473e-04 0.0000000000000000e+00  5.5392066481042682e-04  1.7820261791522260e-04 0.0000000000000000e+00  5.9537720437003805e-04  2.1751982613131107e-04 0.0000000000000000e+00  1.4761585925000386e-04  5.5995081314473983e-04 0.0000000000000000e+00  1.4888167307467216e-04  3.2580173620844330e-04 0.0000000000000000e+00  2.2951246481766338e-04  2.5753152504828103e-04 0.0000000000000000e+00  2.6203902426655192e-04  2.3867157036874543e-04 0.0000000000000000e+00  2.4312512541597065e-04  5.1026384731685552e-04 0.0000000000000000e+00  2.1769049376734123e-04  4.9840338552113446e-04 0.0000000000000000e+00  1.1267131094711291e-04  5.0283054846749994e-04 0.0000000000000000e+00  1.3534973337025438e-04  5.6068660731967764e-04 0.0000000000000000e+00  2.9502558528942150e-04  2.7448544788320203e-04 0.0000000000000000e+00  1.9259123137017772e-04  2.9387645207209291e-04 0.0000000000000000e+00  3.3445167772653720e-04  4.5114480147663323e-05 0.0000000000000000e+00  3.6387893101555023e-04  6.1755407803656005e-05 0.0000000000000000e+00  3.7339124752008138e-05  5.7214832744355987e-05 0.0000000000000000e+00  3.2842946065455409e-05  3.4796156906044808e-05 0.0000000000000000e+00  2.0622448940660732e-05  7.9427431330676617e-05 0.0000000000000000e+00  3.8612281397202498e-05  5.1517765759527323e-05 0.0000000000000000e+00  3.9634895250944673e-05  1.9944444459893022e-04 0.0000000000000000e+00  5.0196912514976943e-05  1.2474518144981378e-04 0.0000000000000000e+00  5.9033657132027343e-04  3.0171375857699777e-04 0.0000000000000000e+00  4.5957746172634284e-04  2.6712403519834872e-04 0.0000000000000000e+00  2.9549135125449461e-04  5.1183055106862781e-04 0.0000000000000000e+00  3.2775484736221558e-04  6.0205969721759123e-04 0.0000000000000000e+00  4.8338381500703143e-05  3.5190277878677988e-04 0.0000000000000000e+00  6.1345553361506278e-05  3.0213335994390346e-04 0.0000000000000000e+00  2.2252507067025615e-05  1.3768529707938062e-04 0.0000000000000000e+00  1.7170915571592706e-05  8.5803861707843337e-05 0.0000000000000000e+00  2.5922851417710301e-05  1.1947514984455181e-04 0.0000000000000000e+00  7.8359846783410724e-05  1.9617865329570473e-04 0.0000000000000000e+00  9.9313884200646744e-05  1.5499102199786121e-04 0.0000000000000000e+00  1.7559021485047551e-04  4.1045196104799226e-05 0.0000000000000000e+00  1.7069195400592766e-04  1.0243575674830733e-04 0.0000000000000000e+00  1.2227138639497325e-04  1.6669339629079940e-04 0.0000000000000000e+00  1.1230577773864814e-04  9.4269277439955898e-05 0.0000000000000000e+00  2.0972782248820343e-04  1.2700264534222194e-04 0.0000000000000000e+00  1.8951947329750045e-04  1.9607550369690199e-04 0.0000000000000000e+00  5.4680017309484462e-04  1.4187432495304120e-04 0.0000000000000000e+00  4.4735411740939721e-04  1.6985668348795446e-04 0.0000000000000000e+00  4.1177203324461092e-04  4.1063646555610314e-04 0.0000000000000000e+00  3.8345901319968451e-04  4.2709306738470499e-04 0.0000000000000000e+00  3.3446843484427575e-04  2.2409687451835486e-04 0.0000000000000000e+00  2.6399095334562447e-04  1.6226434930529713e-04 0.0000000000000000e+00  5.8410620848000578e-05  1.5862912581825691e-04 0.0000000000000000e+00  5.4417865826179894e-05  1.0575085126837913e-04 0.0000000000000000e+00  1.1126267347344367e-04  5.3025251202589070e-04 0.0000000000000000e+00  7.9809080371109596e-05  6.5482788828360452e-04 0.0000000000000000e+00  5.4951652574569058e-04  6.7698993761359692e-04 0.0000000000000000e+00  5.1800014489823882e-04  6.0320390590884931e-04 0.0000000000000000e+00  1.7589913621606130e-04  2.0385674551881664e-04 0.0000000000000000e+00  1.4904157042884249e-04  2.5633540147760957e-04 0.0000000000000000e+00  3.2277527139313889e-04  5.8583848248041548e-05 0.0000000000000000e+00  2.1594847331877798e-04  7.1281775533153631e-05 0.0000000000000000e+00  6.0702259754242508e-04  5.8248305919931576e-04 0.0000000000000000e+00  5.6689906120267568e-04  5.8697235983696703e-04 0.0000000000000000e+00  3.5096274978333591e-05  9.1282899162913638e-05 0.0000000000000000e+00  2.6555489055423609e-05  1.0632390709363239e-04 0.0000000000000000e+00  1.8306266572924636e-04  6.3465434448490123e-04 0.0000000000000000e+00  2.5962420990480753e-04  6.4047438502737026e-04 0.0000000000000000e+00  3.0307016842644468e-04  5.9306069014647259e-04 0.0000000000000000e+00  2.6162216096165485e-04  6.2147225082285118e-04 0.0000000000000000e+00  3.8308073170681796e-04  2.1358839954429088e-05 0.0000000000000000e+00  1.2885963817684865e-04  5.5505843056581161e-05 0.0000000000000000e+00  1.3622555266211431e-04  5.6447655931656955e-05 0.0000000000000000e+00  3.2006163764460309e-04  2.7300465212559889e-04 0.0000000000000000e+00  3.1068633136646526e-04  3.0751277763220707e-04 0.0000000000000000e+00  7.8117144716279376e-05  2.6914494086321565e-04 0.0000000000000000e+00  6.3771947237526748e-05  2.6472228655423184e-04 0.0000000000000000e+00  3.3982030470362318e-04  2.1228560722498669e-05 0.0000000000000000e+00  3.4024620206907121e-04  3.0047565239032255e-05 0.0000000000000000e+00  2.9522149405555084e-04  4.8881320363705340e-05 0.0000000000000000e+00  2.8358291072971760e-04  4.5089193004929294e-05 0.0000000000000000e+00  1.6798579801565307e-04  4.0460050452764928e-04 0.0000000000000000e+00  1.5522112880978766e-04  3.1157195454995488e-04 0.0000000000000000e+00  1.3485152199716729e-04  3.0772567911400148e-04 0.0000000000000000e+00  1.5422494552169729e-04  3.4764179394723661e-04 0.0000000000000000e+00  3.9514776884290062e-05  4.3278473661030728e-05 0.0000000000000000e+00  3.7091128254088456e-05  9.5508305920850522e-05 0.0000000000000000e+00  2.3689224596372676e-04  2.2230379654404359e-04 0.0000000000000000e+00  2.6541923103736315e-04  2.2858496506807110e-04 0.0000000000000000e+00  1.2336425379306831e-04  1.3122662211779429e-04 0.0000000000000000e+00  4.7510844494655030e-05  1.5828245410332925e-04 0.0000000000000000e+00  1.2752709155270075e-04  1.9080483673338174e-05 0.0000000000000000e+00  1.8819330836759735e-04  5.2834545860482740e-05 0.0000000000000000e+00  1.9437299622024356e-04  3.5800742789587307e-05 0.0000000000000000e+00  1.5666446997451936e-04  4.6958752211474444e-05 0.0000000000000000e+00  1.1491316824703318e-04  5.8782759748729275e-05 0.0000000000000000e+00  1.5258428085805433e-04  4.5135763420673683e-05 0.0000000000000000e+00  1.2575075336931563e-04  3.0547949400659717e-05 0.0000000000000000e+00  6.1261853364196124e-04  3.2634182030424875e-04 0.0000000000000000e+00  6.1283168302015030e-04  3.7890732623169676e-04 0.0000000000000000e+00  5.6746208999421263e-04  3.1739954080397935e-04 0.0000000000000000e+00  5.8681520739780843e-04  5.9135830060339423e-04 0.0000000000000000e+00  3.7406439234435841e-04  6.5351767550327446e-04 0.0000000000000000e+00  2.7084818975643487e-05  3.9239480658708620e-04 0.0000000000000000e+00  2.7099675037306142e-05  3.9612594111897425e-04 0.0000000000000000e+00  4.7993762815145527e-04  5.6440317494454726e-05 0.0000000000000000e+00  5.9598477613681154e-04  4.4495898814163817e-05 0.0000000000000000e+00  2.4514103371197320e-04  1.4664053945270225e-04 0.0000000000000000e+00  1.4545910920637923e-04  1.1194130608990255e-04 0.0000000000000000e+00  5.4574888780107314e-05  3.1859479695042200e-05 0.0000000000000000e+00  3.7654524063030401e-05  4.6861768586943686e-05 0.0000000000000000e+00  4.8138127111798751e-04  4.9920202001912950e-04 0.0000000000000000e+00  5.4956525780965244e-04  5.0449645860476040e-04 0.0000000000000000e+00  1.1187782363388074e-04  9.0804084232775479e-05 0.0000000000000000e+00  1.6455022182249485e-04  8.2564886855725106e-05 0.0000000000000000e+00  7.9324725700542249e-05  3.6944168166874763e-04 0.0000000000000000e+00  9.4458709375279772e-05  2.6838222698124668e-04 0.0000000000000000e+00  4.6677357403058047e-04  5.8693032856690386e-05 0.0000000000000000e+00  5.2431998487346217e-04  7.7900920928268414e-05 0.0000000000000000e+00  5.3696195786052784e-04  3.1942191461401875e-05 0.0000000000000000e+00  3.9707818251606648e-04  2.3396568475674494e-05 0.0000000000000000e+00  3.3463111203533750e-04  1.4918869561146391e-05 0.0000000000000000e+00  3.4634135521998126e-04  1.6157581925844682e-04 0.0000000000000000e+00  3.9575350738036840e-04  8.8752208063527053e-05 0.0000000000000000e+00  5.9665991247225350e-04  5.1334145251005932e-04 0.0000000000000000e+00  1.9866052861017972e-04  4.8570015912825738e-04 0.0000000000000000e+00  1.8366976945910328e-04  3.8045160753975420e-04 0.0000000000000000e+00  5.8498435630494777e-04  1.1476502295520842e-04 0.0000000000000000e+00  5.3724849111976155e-04  1.4086723600666685e-04 0.0000000000000000e+00  7.0533960301665932e-04  4.8001106614051617e-06 0.0000000000000000e+00  1.9311096865089268e-05  6.1217481509221773e-04 0.0000000000000000e+00  6.2746910386437892e-06  7.0073307582607539e-04 0.0000000000000000e+00  3.9266697724431962e-05  1.3882575539732613e-04 0.0000000000000000e+00  2.2151986044020007e-05  2.0438313608521022e-04 0.0000000000000000e+00  2.3593399262171995e-05  1.3824385821767474e-04 0.0000000000000000e+00  2.8906255037573038e-05  1.0902751548105523e-04 0.0000000000000000e+00  6.2462444237863224e-05  1.5842574596378124e-04 0.0000000000000000e+00  5.1405832125373503e-05  2.3989834974142609e-04 0.0000000000000000e+00  6.8372401688920179e-05  5.4517459006564474e-05 0.0000000000000000e+00  5.8454570100171166e-05  2.1572694798235828e-05 0.0000000000000000e+00  4.3059131192277943e-05  5.1293480047596948e-05 0.0000000000000000e+00  5.6613392970096088e-05  2.5247620991585699e-05 0.0000000000000000e+00  3.4917576559974063e-04  3.4084981031224000e-04 0.0000000000000000e+00  3.9856023753650881e-04  3.3023098741131768e-04 0.0000000000000000e+00  2.5947659677666819e-05  -2.7221269044938087e-06 0.0000000000000000e+00  2.6807930177255427e-05  1.0747804650431191e-06 0.0000000000000000e+00  2.4872980264229023e-05  5.0405046773969757e-05 0.0000000000000000e+00  5.4517564366450815e-04  4.2377329810515960e-04 0.0000000000000000e+00  5.0736716571832220e-04  4.9965191940996064e-04 0.0000000000000000e+00  7.9259928719108272e-05  7.0064011782074664e-05 0.0000000000000000e+00  5.2927894208714057e-05  5.5754995597794638e-05 0.0000000000000000e+00  1.0285165150815772e-04  3.5596718095763885e-05 0.0000000000000000e+00  2.0015455128077989e-04  3.1347450057345798e-05 0.0000000000000000e+00  8.1342639311280261e-05  1.5278606532241533e-04 0.0000000000000000e+00  3.9751573584031833e-05  1.9578459866340214e-04 0.0000000000000000e+00  6.8131701550185378e-05  2.1332405038094625e-04 0.0000000000000000e+00  8.3514285533780282e-05  2.0667867536773590e-04 0.0000000000000000e+00  9.6917257710509529e-05  4.5669667359617291e-04 0.0000000000000000e+00  1.2738932215275222e-04  4.6228337831086724e-04 0.0000000000000000e+00  1.0878075494701649e-04  3.2176109786400829e-04 0.0000000000000000e+00  9.3837633817449957e-05  3.9522659993557560e-04 0.0000000000000000e+00  2.1064975575257809e-04  6.5162748940805835e-04 0.0000000000000000e+00  1.7535443564866871e-04  6.8747356449758666e-04 0.0000000000000000e+00  6.40