<?xml version="1.0"?>
<VTKFile type="UnstructuredGrid"  version="0.1"  >
<UnstructuredGrid>
<Piece  NumberOfPoints="1385" NumberOfCells="2640">
<Points>
<DataArray  type="Float64"  NumberOfComponents="3"  format="ascii">0 0 0  1 0 0  1 1 0  0 1 0  0.5 0 0  1 0.5 0  0.5 1 0  0 0.5 0  0.5 0.5 0  0 0.25 0  0.25 0 0  0.25 1 0  0 0.75 0  1 0.25 0  0.75 0 0  1 0.75 0  0.75 1 0  0.7083333333333333 0.2916666666666667 0  0.2916666666666666 0.7083333333333334 0  0.375 0.25 0  0.75 0.625 0  0.2569444444444444 0.4652777777777778 0  0.5366379310344828 0.7535919540229885 0  0.1875 0.1875 0  0.8125 0.8125 0  0.869047619047619 0.375 0  0.1450441919191919 0.6052714646464646 0  0.375 0.8690476190476191 0  0.5526960784313725 0.1825980392156862 0  0.8385416666666666 0.1614583333333334 0  0.1614583333333333 0.8385416666666667 0  0.6736111111111112 0.4652777777777778 0  0.1367521367521368 0.3477564102564102 0  0.6570970491253563 0.8648656830417855 0  0.5102479397556124 0.3386260301221938 0  0.3654513888888889 0.5737847222222222 0  0.6929750044954185 0.1362784921584263 0  0.388576102743835 0.411911725237599 0  0.6091269841269842 0.5942460317460317 0  0.875 0.6875 0  0.427278890279516 0.119889445139758 0  0.8544456845238095 0.5213913690476191 0  0.125 0 0  0 0.125 0  1 0.875 0  0.875 1 0  0.1280008648150532 0.4769292340226777 0  0.2695382451711197 0.3321750950221553 0  0.7031567235715964 0.7447810921428012 0  0.625 0 0  0.375 0 0  0.125 1 0  0.875 0 0  0 0.375 0  0 0.625 0  1 0.375 0  0.375 1 0  1 0.125 0  0 0.875 0  0.625 1 0  1 0.625 0  0.2979288363930608 0.1201429454643536 0  0.410919540229885 0.7484605911330049 0  0.5325041980395562 0.878905151526474 0  0.4831670727569156 0.6331060043826487 0  0.1735997378973042 0.7204747378973043 0  0.2534919507575758 0.5772372159090909 0  0.2633928571428572 0.8876488095238095 0  0.8199404761904761 0.2730654761904762 0  0.75830270586982 0.3919383189517417 0  0.5750282248382511 0.4237522353023667 0  0.6008360210023379 0.2794828358598495 0  0.08163442644334186 0.6821295860397322 0  0.08333333333333333 0.1875 0  0.2028380815996574 0.08844602719988583 0  0.2766521142611967 0.2325436572164097 0  0.90625 0.78125 0  0.890625 0.890625 0  0.7545696325008384 0.8973565441669461 0  0.5625 0.08086590340834317 0  0.09077380952380953 0.09077380952380952 0  0.4610923478694773 0.209034015149656 0  0.7542527598351648 0.5248380520595106 0  0.6459235536037465 0.3619913988405765 0  0.7560381768882634 0.20506142233852 0  0.07073252688172042 0.8125 0  0.0924753097241701 0.9078102849914793 0  0.9292674731182795 0.1875 0  0.9075246902758297 0.09218971500852073 0  0.8125 0.07073252688172045 0  0.2400955776842301 0.7869705776842302 0  0.9121050213379069 0.2781978201831695 0  0.7916878157143976 0.7239689078571988 0  0.9345238095238094 0.4375 0  0.4375 0.9345238095238095 0  0.3725616989755203 0.6651895248862173 0  0.06536271996350887 0.5625 0  0.9348362560379583 0.5625 0  0.456646798987055 0.8277247094351965 0  0.1875 0.9355758238725954 0  0.6169761231634859 0.6939779188977889 0  0.6226854751147515 0.7827911461419014 0  0.3305695598137626 0.7901697871282585 0  0.5865305325818898 0.5101085479043448 0  0.6622701297028378 0.2177663989757395 0  0.1354166666666667 0.2591702279202279 0  0 0.3125 0  0.2094429575680048 0.3936361846162499 0  0.836666296419157 0.607917407161686 0  0.6875 1 0  0.214261555450504 0.6492551722020035 0  0 0.4375 0  0.07731537126068377 0.40625 0  0.3427725432967068 0.4879566233699599 0  0.3550792513951871 0.3331953632609953 0  0.4462473953896857 0.2887834789342508 0  0.4747801464819794 0.417386052030127 0  0.8229836475148948 0.4443292349237342 0  0.7322605135514757 0.8199240278289671 0  0.6756431877205955 0.5468989748126787 0  0.1968419507215863 0.5194573482612496 0  0.3285590277777778 0.9345238095238095 0  0.8125 1 0  0.4198917601920009 0.5134893045331258 0  0.5232405503206691 0.2595791787880157 0  1 0.9375 0  0.1987510870015086 0.3025185951894431 0  0.5625 1 0  0.6005390654136388 0.9228110509230952 0  0.6411254848194414 0.07704872765442942 0  0.3357233162523242 0.1855113224530532 0  0.6730653396610877 0.6393887462324165 0  0.310966987234063 0.6240019765311626 0  0.7368737836204349 0.07457755202327881 0  0.6192316414418171 0.1485238406378594 0  0.5432429670607106 0.678552703844006 0  0.4754371679695679 0.7103946803120881 0  0.07501324890749672 0.3043839897335739 0  0.5358146975860403 0.5688321463205916 0  0.3115271739500156 0.3982137365971444 0  0.3625191397122174 0.0767854603650549 0  0.5024029442563831 0.1264128223758444 0  0.4375 0 0  0.4699946908887376 0.06379961173775725 0  0.9375 0.71875 0  0.9272105898044465 0.635671179608893 0  0.9375 1 0  0.6690971819568612 0.9331530898202766 0  0.1073454944778885 0.7499206387638554 0  0.8699082999280406 0.2232403652524313 0  0.5773118091863964 0.3548027349159383 0  0.1354166666666667 0.1428571428571428 0  0.3125 0 0  0.8241684193077341 0.9257452995055244 0  0.4352314948354036 0.3586940847489378 0  0.4351301473778832 0.5819726043539077 0  0.8073232928518163 0.3419398170341962 0  0.7775949246947366 0.1298519409204575 0  0.6875 0 0  0.7413513991851041 0.457933324954483 0  0.939453125 0.841796875 0  0.5630355154606987 0.8171875156478349 0  0.9345238095238095 0.3461466592368577 0  0.9375 0 0  1 0.0625 0  0.0625 1 0  0 0.9375 0  0.06552178593177167 0.4969053669623468 0  0.1424866619031703 0.4130277709291224 0  0.1275287182444726 0.5422946908002588 0  0.2637686595586339 0.06413888464529549 0  0.2524263535491086 0.1697437503243817 0  0.7367218397988525 0.6888573970660841 0  0.0625 0 0  0 0.0625 0  0.8463594539285995 0.7578283617857982 0  0.3128751192101563 0.2851997374369947 0  0.4015281788351144 0.1806421385113692 0  0.1910251795116588 0.4553332197174453 0  0.287797471442006 0.5222621440543902 0  0.3962628745986055 0.8097380085535307 0  0.3505895299554843 0.7304878890838692 0  0.5019151500495276 0.9356042615328103 0  0.9374389419410134 0.4999931039076005 0  0.3125 1 0  0.1875 1 0  1 0.5625 0  0.4375 1 0  1 0.3125 0  1 0.4375 0  0.8125 0 0  1 0.1875 0  0.5625 0 0  0.1875 0 0  0 0.1875 0  0 0.5625 0  0 0.6875 0  0 0.8125 0  1 0.6875 0  1 0.8125 0  0.8021696218581627 0.6612893947866073 0  0.06154922295426143 0.6239401126946708 0  0.9359375 0.9359375 0  0.4666158024849896 0.7691515918155014 0  0.2318201265217025 0.7064974250277525 0  0.1565954253579966 0.6635489312486841 0  0.1598132503680848 0.7787147500325552 0  0.3146529991605639 0.8510876378205265 0  0.1461873209418733 0.05982804528877814 0  0.06109554988524315 0.2446551776247686 0  0.8054950308560754 0.5564226538848541 0  0.470541749491976 0.8853316336952531 0  0.6948472567465137 0.4042308563372457 0  0.8802828472348889 0.4658893256343853 0  0.6788075634946739 0.7974194205806069 0  0.2155048659603867 0.2428201584940968 0  0.8131223143423806 0.2132171049028394 0  0.4330798005432235 0.6671274900735726 0  0.6015279126162613 0.2187368078743274 0  0.8061636571464289 0.8703766630361714 0  0.7008230445061776 0.3478568388444072 0  0.8638466246958771 0.3147095987735538 0  0.204801534004265 0.8789209409594009 0  0.2449006736431132 0.9424182882803838 0  0.7611268409371427 0.2643056884799992 0  0.7552800864046191 0.7678006649959446 0  0.5983639638906616 0.864113435029236 0  0.1956559506814437 0.577281203577426 0  0.3527670268164207 0.1320469097565204 0  0.7530364577483248 0.3262386077083089 0  0.4535919187979363 0.4690107087451527 0  0.8824869791666666 0.8336588541666666 0  0.8814453125 0.9451171875 0  0.5582987942628019 0.622421666543858 0  0.6817532446064828 0.6939001801354731 0  0.3830295138888889 0.9450968952922078 0  0.4140603937012541 0.05211333372716105 0  0.5535864501303013 0.3060591985391672 0  0.6560130086346878 0.2729726562211558 0  0.890203140221684 0.5948314305427268 0  0.7043857725999024 0.593980890020804 0  0.5105843922695152 0.8016828014338627 0  0.05365910753708378 0.7315110031682004 0  0.616904573672261 0.4621186633436136 0  0.5338511646455415 0.387875898899613 0  0.5231769258947843 0.4477682463140762 0  0.650302973237622 0.7370722302085519 0  0.3927483139621257 0.4662414504529014 0  0.8034595960585199 0.4972538342758211 0  0.7738337841682438 0.9496376207663251 0  0.7193737507158268 0.954685447650112 0  0.482525916480686 0.5528257169991676 0  0.2533501157346781 0.2809495420003238 0  0.3118487924482243 0.5702930126570319 0  0.6257598847669529 0.4104163315430518 0  0.1354166666666667 0.1955605158730158 0  0.04166666666666666 0.15625 0  0.3956448985530264 0.6174149462065157 0  0.8102897701818546 0.3938784238208349 0  0.2641154190013625 0.8344469561943118 0  0.642852220770013 0.5068794586563659 0  0.05271458179508221 0.355846947336007 0  0.7021551360070266 0.8921457280225779 0  0.5692125776683765 0.1328512638850284 0  0.5206162811937602 0.04865158770992991 0  0.6001838442201555 0.04540556991297563 0  0.2597716608242787 0.4118346398477178 0  0.4040584599473195 0.3179589136784675 0  0.1480337679295207 0.8941560631483065 0  0.1344356707112281 0.9466251177415842 0  0.7114696411829317 0.4983917389078826 0  0.7585704698442475 0.5751926345944629 0  0.2189131956390871 0.04022068508159698 0  0.2476935455192043 0.1123642267635843 0  0.185995005654517 0.1365524537205238 0  0.6223414373308711 0.643380839165121 0  0.5732602596637543 0.7190051747306219 0  0.268358222364537 0.6586246524467934 0  0.3265879848129173 0.2369791782191225 0  0.1267095595787346 0.7034787238999181 0  0.1115202922226038 0.6421997933884982 0  0.3128688392940203 0.07260997451790079 0  0.550724900485678 0.9253360991633187 0  0.7142608810459105 0.2384904702214873 0  0.7045869185243887 0.1871826897887429 0  0.890625 0.734375 0  0.953125 0.765625 0  0.2111812642821677 0.8286209446459138 0  0.9590293078204457 0.09375 0  0.953431269039847 0.1435719386408004 0  0.04097069217955424 0.90625 0  0.04656873096015299 0.8564280613591996 0  0.1078743037981226 0.8541621766048062 0  0.8921256962018773 0.1458378233951939 0  0.8521576979194619 0.1084496634207678 0  0.8655663982740958 0.05464346096571447 0  0.04005659640905543 0.09375 0  0.1001448316533417 0.04246776244228261 
[...]
<CellData  Vectors="f_8394-1"> 
<DataArray  type="Float64"  Name="f_8394-1"  NumberOfComponents="3" format="ascii">1.3750757572045293e-04  1.1624841977600934e-04 0.0000000000000000e+00  3.4739380450992359e-05  5.6295815117362641e-05 0.0000000000000000e+00  4.3169306089400035e-05  5.2111568320590719e-05 0.0000000000000000e+00  2.0827663092404809e-05  2.5864417500641001e-05 0.0000000000000000e+00  6.3224147186803371e-05  1.2048914740436364e-04 0.0000000000000000e+00  5.1241921129428761e-05  4.5708645392948099e-05 0.0000000000000000e+00  3.5099065839826860e-05  3.6928568059430418e-04 0.0000000000000000e+00  2.9241905622528924e-05  5.2860534784844625e-04 0.0000000000000000e+00  4.5178131959772817e-04  2.0352582236151549e-05 0.0000000000000000e+00  2.0468695599621162e-04  9.0716620496714834e-06 0.0000000000000000e+00  8.5125499107732651e-05  3.4448014884351651e-05 0.0000000000000000e+00  3.2093454602946192e-04  3.8436098121956273e-04 0.0000000000000000e+00  2.5303101700972259e-04  4.7416261705129329e-04 0.0000000000000000e+00  3.7273641061468920e-04  2.7172572227998480e-04 0.0000000000000000e+00  4.6576730219290521e-04  2.1648164395810882e-04 0.0000000000000000e+00  3.9826341991370054e-04  1.4690405708279135e-04 0.0000000000000000e+00  2.7398597905011249e-04  3.0437753823942822e-04 0.0000000000000000e+00  1.2194018513221474e-04  1.3862739873679515e-04 0.0000000000000000e+00  6.6546002502754551e-05  3.3267282934467161e-04 0.0000000000000000e+00  1.9108925290751855e-04  6.2965234028230908e-05 0.0000000000000000e+00  2.0379571787302746e-04  3.9642384350440747e-05 0.0000000000000000e+00  3.6782257231311960e-04  1.3726319388255573e-04 0.0000000000000000e+00  4.0492062995380702e-04  1.2948184553539691e-04 0.0000000000000000e+00  5.0783892812133541e-05  3.6406583962850757e-04 0.0000000000000000e+00  6.8826863888575619e-05  1.7862677849732450e-04 0.0000000000000000e+00  8.6897140178726528e-05  4.2793718535146831e-04 0.0000000000000000e+00  7.2226825726883119e-06  4.1806717050086109e-05 0.0000000000000000e+00  3.3043777910419527e-04  3.6654575426533210e-05 0.0000000000000000e+00  2.9258822201540375e-05  5.1876143436761671e-04 0.0000000000000000e+00  1.9455766286330690e-04  2.1027124796292895e-05 0.0000000000000000e+00  4.4494424966768655e-04  6.3610351918813409e-05 0.0000000000000000e+00  1.7735794142780052e-04  2.4862190654168051e-04 0.0000000000000000e+00  1.8561707045764296e-04  9.3619062171909547e-05 0.0000000000000000e+00  2.7100899025525203e-04  4.3145897414472611e-04 0.0000000000000000e+00  9.3259032070731835e-05  3.4257726143813028e-05 0.0000000000000000e+00  1.1902972177984019e-04  7.0384381847358226e-05 0.0000000000000000e+00  1.3566469571338219e-04  1.8596133255153349e-04 0.0000000000000000e+00  7.0779849853695305e-05  3.8018617582634558e-04 0.0000000000000000e+00  2.8507138670371665e-04  2.9841655402357014e-05 0.0000000000000000e+00  1.1926859590381866e-04  1.1387194529145532e-04 0.0000000000000000e+00  1.1529040412829480e-04  1.0782156492702632e-04 0.0000000000000000e+00  1.9906356542353468e-04  1.1642960926170334e-04 0.0000000000000000e+00  4.2722949634909274e-04  1.9710140346272342e-04 0.0000000000000000e+00  4.6699748704259433e-04  2.0643249751721280e-04 0.0000000000000000e+00  7.0787136633713199e-05  1.6653920631468559e-05 0.0000000000000000e+00  5.5339637990014785e-04  2.7237737553623007e-04 0.0000000000000000e+00  3.9477942265179978e-04  1.9758982464308396e-04 0.0000000000000000e+00  4.3083870020125564e-05  3.7905955857298922e-05 0.0000000000000000e+00  5.3764182073376150e-04  4.0026466767341401e-04 0.0000000000000000e+00  5.1317496725139750e-04  3.1987322821598439e-04 0.0000000000000000e+00  4.4360359791705217e-04  4.2000024359358884e-04 0.0000000000000000e+00  4.9380895792821417e-04  4.7447931751168907e-04 0.0000000000000000e+00  6.1565459311873770e-05  2.0633488113329387e-04 0.0000000000000000e+00  1.1463423275390297e-04  6.5048603267585088e-05 0.0000000000000000e+00  6.0808882460649779e-05  1.1764031424529418e-04 0.0000000000000000e+00  3.3451580135329380e-04  3.3766568898237952e-04 0.0000000000000000e+00  2.6564573983320762e-04  2.4188967976905397e-04 0.0000000000000000e+00  2.5081383618795564e-04  5.1599770347430802e-05 0.0000000000000000e+00  1.0041324367261593e-04  2.2499625920774286e-05 0.0000000000000000e+00  2.5778038658396047e-05  4.7083772267307843e-04 0.0000000000000000e+00  2.5959091406605517e-05  4.5874107623459376e-04 0.0000000000000000e+00  4.1938996421600114e-04  3.5897211420083018e-05 0.0000000000000000e+00  3.0040006693729220e-05  9.4440385884610870e-05 0.0000000000000000e+00  3.1702388969727320e-05  2.1841005535301399e-04 0.0000000000000000e+00  4.2129136805174471e-05  2.3657514557245922e-04 0.0000000000000000e+00  3.8859654868540083e-04  7.8434364763221623e-05 0.0000000000000000e+00  5.5633496355792765e-05  3.5641668772314560e-04 0.0000000000000000e+00  4.9050823514821846e-04  1.9735830638663564e-05 0.0000000000000000e+00  2.4999431461498422e-05  5.1467168411725608e-04 0.0000000000000000e+00  1.7274248381702828e-04  5.4944770481343624e-04 0.0000000000000000e+00  1.8770636685990858e-04  5.0841910424999815e-04 0.0000000000000000e+00  4.4790991991580648e-04  2.5314698368283310e-04 0.0000000000000000e+00  5.7711890311413443e-05  6.7220380079879676e-05 0.0000000000000000e+00  1.3075316572715241e-04  2.1010633099068733e-04 0.0000000000000000e+00  2.2047532220868948e-04  3.0200274643703935e-04 0.0000000000000000e+00  1.2370843729811264e-04  4.0880403491574366e-04 0.0000000000000000e+00  1.7952024576260793e-04  4.1234048273627893e-04 0.0000000000000000e+00  1.7432476961512234e-04  2.8180327445513669e-04 0.0000000000000000e+00  1.3572976528438435e-04  3.5428527441579328e-04 0.0000000000000000e+00  2.5806223296837855e-05  2.7512740476699532e-04 0.0000000000000000e+00  2.3957877701501621e-05  2.1729320514019733e-04 0.0000000000000000e+00  2.5012009214555436e-05  1.9549941208726757e-04 0.0000000000000000e+00  5.7423304169228476e-05  1.6813753046592461e-04 0.0000000000000000e+00  3.9283322742012270e-05  5.3575454348695872e-04 0.0000000000000000e+00  4.6651760184681360e-04  6.0931919305787741e-05 0.0000000000000000e+00  3.0218906286363245e-04  4.1070745032827632e-05 0.0000000000000000e+00  2.9021837669164594e-04  1.0239169066773965e-04 0.0000000000000000e+00  4.4265186861223993e-04  8.4060438729931065e-05 0.0000000000000000e+00  2.8691720506619247e-04  1.4836025538505888e-04 0.0000000000000000e+00  1.7889782771593777e-04  1.2802257641568877e-04 0.0000000000000000e+00  2.5397180299641434e-04  3.9409755683276007e-05 0.0000000000000000e+00  2.3098011861041157e-04  7.1123258199984739e-05 0.0000000000000000e+00  2.3508837094587206e-05  3.4170273840694451e-05 0.0000000000000000e+00  2.7449450305168060e-05  6.1469510248632002e-06 0.0000000000000000e+00  4.9696233356298321e-05  5.1439752621626662e-05 0.0000000000000000e+00  7.4674247988853462e-05  4.8513036104030763e-05 0.0000000000000000e+00  9.4871476801485250e-05  3.0498560308627903e-05 0.0000000000000000e+00  3.4111139627706884e-04  5.4528324525638576e-04 0.0000000000000000e+00  3.3176039603723399e-04  5.0034690874441342e-04 0.0000000000000000e+00  1.5890261755219524e-04  5.1769357402118560e-05 0.0000000000000000e+00  1.2732775734066584e-04  4.1524364767244524e-05 0.0000000000000000e+00  1.4050596881109086e-04  7.2135122135527684e-05 0.0000000000000000e+00  1.3916490555909819e-04  4.8724291880988037e-05 0.0000000000000000e+00  2.7976569123544471e-04  2.1840871486058277e-04 0.0000000000000000e+00  2.7246522113009574e-04  1.8368439142691382e-04 0.0000000000000000e+00  3.5764543013839471e-04  9.4682228506009876e-05 0.0000000000000000e+00  2.8020490127050906e-04  1.2950693581981651e-04 0.0000000000000000e+00  3.0888739817770260e-04  5.0859410093420616e-05 0.0000000000000000e+00  2.6128769820961813e-04  2.9361914712088350e-05 0.0000000000000000e+00  2.0558938376263712e-05  4.4452666018624838e-04 0.0000000000000000e+00  2.9445156087469711e-05  4.5076580134826563e-04 0.0000000000000000e+00  5.1642846409785627e-04  1.8997985448358861e-05 0.0000000000000000e+00  4.9620143774381097e-04  4.0863743922916634e-05 0.0000000000000000e+00  3.8315186091145343e-04  2.0860036159384183e-05 0.0000000000000000e+00  3.6918922698450819e-04  1.1570679282900814e-05 0.0000000000000000e+00  3.7006060691331007e-05  3.6917815668731412e-04 0.0000000000000000e+00  6.5403599876319812e-05  2.7340490236901332e-04 0.0000000000000000e+00  5.1062084504048815e-04  5.9526564815406562e-05 0.0000000000000000e+00  4.1982596264339173e-04  2.7672985497087592e-04 0.0000000000000000e+00  3.5984103771128116e-04  3.2082929391132471e-04 0.0000000000000000e+00  1.5628050681958550e-04  4.4070438220110479e-04 0.0000000000000000e+00  1.5344790875855489e-04  5.1368389787682163e-04 0.0000000000000000e+00  5.4887878727283529e-05  1.9620667819318045e-04 0.0000000000000000e+00  9.5170584723202120e-05  2.3619592671430187e-04 0.0000000000000000e+00  2.4649221268568921e-05  1.8149422031803268e-04 0.0000000000000000e+00  4.0679182285430295e-05  1.8952843864633332e-04 0.0000000000000000e+00  4.7560361231728824e-04  1.5275926546968240e-04 0.0000000000000000e+00  5.1091423423737343e-04  1.8642820323955687e-04 0.0000000000000000e+00  1.2699596764015602e-04  4.8164853235854824e-04 0.0000000000000000e+00  1.2843720507209282e-04  2.8006757924257817e-04 0.0000000000000000e+00  1.9728458145466907e-04  2.2135954622848759e-04 0.0000000000000000e+00  2.2595033091458107e-04  2.0444341998519905e-04 0.0000000000000000e+00  2.0846251847358259e-04  4.3790171072114609e-04 0.0000000000000000e+00  1.8681643793049874e-04  4.2825639493524907e-04 0.0000000000000000e+00  9.7004947649278705e-05  4.3332718444338532e-04 0.0000000000000000e+00  1.1620786993618771e-04  4.8224542509669663e-04 0.0000000000000000e+00  2.5312511240915977e-04  2.3571673270620839e-04 0.0000000000000000e+00  1.6685954313315235e-04  2.5418307383506697e-04 0.0000000000000000e+00  2.8698537447940654e-04  4.1985843114157691e-05 0.0000000000000000e+00  3.1281095092784873e-04  5.4349863376512167e-05 0.0000000000000000e+00  3.3299613337779539e-05  5.2181419291749548e-05 0.0000000000000000e+00  3.1220591415964164e-05  2.9314917051820994e-05 0.0000000000000000e+00  2.0142583881846770e-05  6.7946141200898253e-05 0.0000000000000000e+00  3.8542554928590612e-05  4.3055273045220345e-05 0.0000000000000000e+00  3.7504191775085421e-05  1.7240406403993072e-04 0.0000000000000000e+00  4.5626858197410780e-05  1.0818155401386716e-04 0.0000000000000000e+00  5.0632435851765030e-04  2.5860247137119623e-04 0.0000000000000000e+00  3.9464976965611722e-04  2.2914945563275984e-04 0.0000000000000000e+00  2.5332544073302396e-04  4.3904570469600640e-04 0.0000000000000000e+00  2.8085479744994416e-04  5.1617872609680210e-04 0.0000000000000000e+00  4.2443687897782898e-05  3.0420225187070702e-04 0.0000000000000000e+00  5.6582852274270548e-05  2.6102359356803135e-04 0.0000000000000000e+00  2.2224531237495484e-05  1.1643181626859408e-04 0.0000000000000000e+00  1.6900847504705857e-05  7.3725016425186016e-05 0.0000000000000000e+00  2.4381990359097599e-05  1.0375990227019278e-04 0.0000000000000000e+00  6.9078515760287944e-05  1.6868380337557742e-04 0.0000000000000000e+00  8.7388703606774499e-05  1.3514171131105229e-04 0.0000000000000000e+00  1.5137341264596297e-04  3.5789248150030457e-05 0.0000000000000000e+00  1.4981904767873480e-04  9.1289703712404957e-05 0.0000000000000000e+00  1.0826923815039577e-04  1.4618703803421642e-04 0.0000000000000000e+00  9.7317872085576784e-05  8.3959744017363561e-05 0.0000000000000000e+00  1.8174175962779553e-04  1.1044496328718907e-04 0.0000000000000000e+00  1.6351955804581056e-04  1.6956102544698272e-04 0.0000000000000000e+00  4.7055665420870469e-04  1.2161351116474278e-04 0.0000000000000000e+00  3.8527183780331920e-04  1.4653727049854606e-04 0.0000000000000000e+00  3.5272950563871160e-04  3.5190524294271858e-04 0.0000000000000000e+00  3.2869355059240795e-04  3.6587523776134435e-04 0.0000000000000000e+00  2.8746993628637980e-04  1.9268850274014668e-04 0.0000000000000000e+00  2.2798165156387163e-04  1.4068689292188075e-04 0.0000000000000000e+00  5.6527693755981979e-05  1.3813487448799112e-04 0.0000000000000000e+00  4.9568499416296143e-05  9.1719938420829536e-05 0.0000000000000000e+00  9.6280618879641768e-05  4.5612358701306263e-04 0.0000000000000000e+00  6.8754664409042580e-05  5.6308052405027961e-04 0.0000000000000000e+00  4.7044744197260714e-04  5.7875317123677649e-04 0.0000000000000000e+00  4.4321517644960303e-04  5.1596343891383944e-04 0.0000000000000000e+00  1.5168989461558646e-04  1.7513000268764916e-04 0.0000000000000000e+00  1.2774233600291673e-04  2.2171518728871802e-04 0.0000000000000000e+00  2.7734337256171275e-04  5.1610706538142874e-05 0.0000000000000000e+00  1.8879692701218145e-04  6.4046760817624751e-05 0.0000000000000000e+00  5.1953249629955274e-04  4.9803091567564078e-04 0.0000000000000000e+00  4.8477452451570061e-04  5.0267424923842335e-04 0.0000000000000000e+00  3.1722800854038147e-05  8.0286993757926626e-05 0.0000000000000000e+00  2.4633212485574372e-05  9.3172128707600196e-05 0.0000000000000000e+00  1.5699719600968174e-04  5.4468698932447972e-04 0.0000000000000000e+00  2.2256685515728726e-04  5.4927781156405774e-04 0.0000000000000000e+00  2.5979576043010495e-04  5.0856791447118261e-04 0.0000000000000000e+00  2.2428196898279356e-04  5.3304377940942792e-04 0.0000000000000000e+00  3.2942701682658426e-04  1.9880955132448626e-05 0.0000000000000000e+00  1.1437096635491600e-04  5.2430073943463939e-05 0.0000000000000000e+00  1.2111264362453888e-04  5.3942833864673355e-05 0.0000000000000000e+00  2.7496072567663297e-04  2.3419758178715134e-04 0.0000000000000000e+00  2.6610879736956440e-04  2.6395814212372534e-04 0.0000000000000000e+00  6.9895618287596991e-05  2.3074202054147210e-04 0.0000000000000000e+00  5.6748333273597365e-05  2.2647204490778772e-04 0.0000000000000000e+00  2.9079210036977592e-04  2.1142480209540547e-05 0.0000000000000000e+00  2.9095732175162724e-04  2.9278907139232238e-05 0.0000000000000000e+00  2.5536604045822166e-04  4.7500179555389074e-05 0.0000000000000000e+00  2.4302180401841725e-04  4.1863525437031926e-05 0.0000000000000000e+00  1.4499392941775876e-04  3.4802476639265333e-04 0.0000000000000000e+00  1.3311443706003279e-04  2.6913106855215731e-04 0.0000000000000000e+00  1.1683351646281849e-04  2.6572322847299946e-04 0.0000000000000000e+00  1.3247636107574845e-04  2.9992699684696267e-04 0.0000000000000000e+00  3.8992214179803676e-05  3.8325984783625079e-05 0.0000000000000000e+00  3.4961326616697168e-05  8.3361643693733315e-05 0.0000000000000000e+00  2.0313640345119078e-04  1.9255832998182174e-04 0.0000000000000000e+00  2.2860444793046232e-04  1.9823940573053878e-04 0.0000000000000000e+00  1.0848037904319950e-04  1.1299886162148281e-04 0.0000000000000000e+00  4.0702470273657131e-05  1.3800531361475145e-04 0.0000000000000000e+00  1.0878228615018465e-04  1.8960634092368427e-05 0.0000000000000000e+00  1.6451731861924734e-04  5.1902314907491988e-05 0.0000000000000000e+00  1.7135757339673994e-04  3.4465420936846505e-05 0.0000000000000000e+00  1.3574657160498135e-04  4.6443985443727029e-05 0.0000000000000000e+00  1.0131734097222129e-04  5.8034155914351227e-05 0.0000000000000000e+00  1.3218948039045133e-04  4.4984712280648107e-05 0.0000000000000000e+00  1.0797007655084827e-04  3.0536987413737594e-05 0.0000000000000000e+00  5.2534766608709218e-04  2.7972651445216451e-04 0.0000000000000000e+00  5.2524398345313197e-04  3.2446851809186489e-04 0.0000000000000000e+00  4.8659238578281595e-04  2.7197718128413572e-04 0.0000000000000000e+00  5.0166320471682689e-04  5.0584335984500900e-04 0.0000000000000000e+00  3.2052206026774084e-04  5.5999901732673970e-04 0.0000000000000000e+00  2.6440279327817960e-05  3.3816898655430696e-04 0.0000000000000000e+00  2.6417430028380043e-05  3.3784450211295572e-04 0.0000000000000000e+00  4.1153651745538144e-04  5.0168545534028627e-05 0.0000000000000000e+00  5.1327238103183028e-04  3.8090537517502686e-05 0.0000000000000000e+00  2.1245004341800193e-04  1.2728932398021670e-04 0.0000000000000000e+00  1.2625347615482276e-04  9.7939779731241391e-05 0.0000000000000000e+00  5.1946923468576965e-05  3.0720143264549018e-05 0.0000000000000000e+00  3.7486089718831289e-05  4.3006291817099444e-05 0.0000000000000000e+00  4.1218847297429251e-04  4.2754231158906878e-04 0.0000000000000000e+00  4.7007043806799557e-04  4.3164387359303244e-04 0.0000000000000000e+00  9.6675099511382402e-05  8.1380167986483377e-05 0.0000000000000000e+00  1.4645046774694744e-04  7.4293426017425264e-05 0.0000000000000000e+00  6.7126292787269344e-05  3.1835645347710754e-04 0.0000000000000000e+00  8.1170945929907778e-05  2.3288035726874232e-04 0.0000000000000000e+00  4.0251972044891868e-04  5.1771935619959427e-05 0.0000000000000000e+00  4.5116354551440484e-04  6.6866663031905631e-05 0.0000000000000000e+00  4.6296613907262363e-04  2.9278803992002131e-05 0.0000000000000000e+00  3.4157311075151827e-04  1.9747083904809982e-05 0.0000000000000000e+00  2.8778423968344922e-04  1.4897153753352443e-05 0.0000000000000000e+00  2.9664271951058947e-04  1.4001201189544309e-04 0.0000000000000000e+00  3.4045356593372442e-04  7.6791295547767294e-05 0.0000000000000000e+00  5.1083901449721020e-04  4.3926692173444328e-04 0.0000000000000000e+00  1.7084878898897442e-04  4.1714293307630791e-04 0.0000000000000000e+00  1.5888088979389373e-04  3.2793048935614815e-04 0.0000000000000000e+00  5.0255777701079722e-04  9.8469381643634469e-05 0.0000000000000000e+00  4.6286013635685706e-04  1.2221546693770734e-04 0.0000000000000000e+00  6.0739254087236198e-04  4.5633373900137468e-06 0.0000000000000000e+00  1.9155277800645083e-05  5.2672600019726466e-04 0.0000000000000000e+00  5.6557144167271394e-06  6.0203769056912883e-04 0.0000000000000000e+00  3.9079146859520289e-05  1.2186186742809148e-04 0.0000000000000000e+00  2.1835834901908236e-05  1.7765670646279440e-04 0.0000000000000000e+00  2.3467354554086981e-05  1.1600941721327180e-04 0.0000000000000000e+00  2.7902877247050458e-05  9.4921558592995543e-05 0.0000000000000000e+00  5.8249715233580957e-05  1.3473709998016760e-04 0.0000000000000000e+00  4.6858611665760316e-05  2.0883450850856983e-04 0.0000000000000000e+00  5.9555518362393890e-05  5.4500261661146394e-05 0.0000000000000000e+00  4.9365760743163057e-05  2.1441412398355584e-05 0.0000000000000000e+00  3.8301563517121703e-05  4.9522836068741248e-05 0.0000000000000000e+00  4.9433340883061855e-05  2.2644138953184359e-05 0.0000000000000000e+00  2.9981514155908015e-04  2.9208960181003962e-04 0.0000000000000000e+00  3.4168232521445888e-04  2.8328154852623054e-04 0.0000000000000000e+00  2.5897291237963650e-05  -3.1011953544846065e-06 0.0000000000000000e+00  2.6787159820406820e-05  4.8082671360173076e-07 0.0000000000000000e+00  2.4534574470901952e-05  5.0233758836174160e-05 0.0000000000000000e+00  4.6685178131318863e-04  3.6271154893042671e-04 0.0000000000000000e+00  4.3425978857998217e-04  4.2747297647148541e-04 0.0000000000000000e+00  7.0799616512888346e-05  6.2130160340720766e-05 0.0000000000000000e+00  4.6229629255139688e-05  4.9952685655447098e-05 0.0000000000000000e+00  9.0157979982621308e-05  3.3728429808490522e-05 0.0000000000000000e+00  1.7394612837601681e-04  2.8670024249332775e-05 0.0000000000000000e+00  7.1236335463157490e-05  1.3326826354448043e-04 0.0000000000000000e+00  3.4584469963725996e-05  1.6805003474958574e-04 0.0000000000000000e+00  6.2327543463698307e-05  1.8484318291438106e-04 0.0000000000000000e+00  7.3111214789203173e-05  1.7875945161854507e-04 0.0000000000000000e+00  8.4924210023107076e-05  3.9253559975891620e-04 0.0000000000000000e+00  1.0997776147649027e-04  3.9750848834169551e-04 0.0000000000000000e+00  9.4230980616576341e-05  2.7608051793565037e-04 0.0000000000000000e+00  8.2019073410843934e-05  3.3957245486265043e-04 0.0000000000000000e+00  1.8056308011338100e-04  5.5900828193042827e-04 0.0000000000000000e+00  1.5036408272331284e-04  5.8965546356097999e-04 0.0000000000000000e+00  5.50