<?xml version="1.0"?>
<VTKFile type="UnstructuredGrid"  version="0.1"  >
<UnstructuredGrid>
<Piece  NumberOfPoints="1385" NumberOfCells="2640">
<Points>
<DataArray  type="Float64"  NumberOfComponents="3"  format="ascii">0 0 0  1 0 0  1 1 0  0 1 0  0.5 0 0  1 0.5 0  0.5 1 0  0 0.5 0  0.5 0.5 0  0 0.25 0  0.25 0 0  0.25 1 0  0 0.75 0  1 0.25 0  0.75 0 0  1 0.75 0  0.75 1 0  0.7083333333333333 0.2916666666666667 0  0.2916666666666666 0.7083333333333334 0  0.375 0.25 0  0.75 0.625 0  0.2569444444444444 0.4652777777777778 0  0.5366379310344828 0.7535919540229885 0  0.1875 0.1875 0  0.8125 0.8125 0  0.869047619047619 0.375 0  0.1450441919191919 0.6052714646464646 0  0.375 0.8690476190476191 0  0.5526960784313725 0.1825980392156862 0  0.8385416666666666 0.1614583333333334 0  0.1614583333333333 0.8385416666666667 0  0.6736111111111112 0.4652777777777778 0  0.1367521367521368 0.3477564102564102 0  0.6570970491253563 0.8648656830417855 0  0.5102479397556124 0.3386260301221938 0  0.3654513888888889 0.5737847222222222 0  0.6929750044954185 0.1362784921584263 0  0.388576102743835 0.411911725237599 0  0.6091269841269842 0.5942460317460317 0  0.875 0.6875 0  0.427278890279516 0.119889445139758 0  0.8544456845238095 0.5213913690476191 0  0.125 0 0  0 0.125 0  1 0.875 0  0.875 1 0  0.1280008648150532 0.4769292340226777 0  0.2695382451711197 0.3321750950221553 0  0.7031567235715964 0.7447810921428012 0  0.625 0 0  0.375 0 0  0.125 1 0  0.875 0 0  0 0.375 0  0 0.625 0  1 0.375 0  0.375 1 0  1 0.125 0  0 0.875 0  0.625 1 0  1 0.625 0  0.2979288363930608 0.1201429454643536 0  0.410919540229885 0.7484605911330049 0  0.5325041980395562 0.878905151526474 0  0.4831670727569156 0.6331060043826487 0  0.1735997378973042 0.7204747378973043 0  0.2534919507575758 0.5772372159090909 0  0.2633928571428572 0.8876488095238095 0  0.8199404761904761 0.2730654761904762 0  0.75830270586982 0.3919383189517417 0  0.5750282248382511 0.4237522353023667 0  0.6008360210023379 0.2794828358598495 0  0.08163442644334186 0.6821295860397322 0  0.08333333333333333 0.1875 0  0.2028380815996574 0.08844602719988583 0  0.2766521142611967 0.2325436572164097 0  0.90625 0.78125 0  0.890625 0.890625 0  0.7545696325008384 0.8973565441669461 0  0.5625 0.08086590340834317 0  0.09077380952380953 0.09077380952380952 0  0.4610923478694773 0.209034015149656 0  0.7542527598351648 0.5248380520595106 0  0.6459235536037465 0.3619913988405765 0  0.7560381768882634 0.20506142233852 0  0.07073252688172042 0.8125 0  0.0924753097241701 0.9078102849914793 0  0.9292674731182795 0.1875 0  0.9075246902758297 0.09218971500852073 0  0.8125 0.07073252688172045 0  0.2400955776842301 0.7869705776842302 0  0.9121050213379069 0.2781978201831695 0  0.7916878157143976 0.7239689078571988 0  0.9345238095238094 0.4375 0  0.4375 0.9345238095238095 0  0.3725616989755203 0.6651895248862173 0  0.06536271996350887 0.5625 0  0.9348362560379583 0.5625 0  0.456646798987055 0.8277247094351965 0  0.1875 0.9355758238725954 0  0.6169761231634859 0.6939779188977889 0  0.6226854751147515 0.7827911461419014 0  0.3305695598137626 0.7901697871282585 0  0.5865305325818898 0.5101085479043448 0  0.6622701297028378 0.2177663989757395 0  0.1354166666666667 0.2591702279202279 0  0 0.3125 0  0.2094429575680048 0.3936361846162499 0  0.836666296419157 0.607917407161686 0  0.6875 1 0  0.214261555450504 0.6492551722020035 0  0 0.4375 0  0.07731537126068377 0.40625 0  0.3427725432967068 0.4879566233699599 0  0.3550792513951871 0.3331953632609953 0  0.4462473953896857 0.2887834789342508 0  0.4747801464819794 0.417386052030127 0  0.8229836475148948 0.4443292349237342 0  0.7322605135514757 0.8199240278289671 0  0.6756431877205955 0.5468989748126787 0  0.1968419507215863 0.5194573482612496 0  0.3285590277777778 0.9345238095238095 0  0.8125 1 0  0.4198917601920009 0.5134893045331258 0  0.5232405503206691 0.2595791787880157 0  1 0.9375 0  0.1987510870015086 0.3025185951894431 0  0.5625 1 0  0.6005390654136388 0.9228110509230952 0  0.6411254848194414 0.07704872765442942 0  0.3357233162523242 0.1855113224530532 0  0.6730653396610877 0.6393887462324165 0  0.310966987234063 0.6240019765311626 0  0.7368737836204349 0.07457755202327881 0  0.6192316414418171 0.1485238406378594 0  0.5432429670607106 0.678552703844006 0  0.4754371679695679 0.7103946803120881 0  0.07501324890749672 0.3043839897335739 0  0.5358146975860403 0.5688321463205916 0  0.3115271739500156 0.3982137365971444 0  0.3625191397122174 0.0767854603650549 0  0.5024029442563831 0.1264128223758444 0  0.4375 0 0  0.4699946908887376 0.06379961173775725 0  0.9375 0.71875 0  0.9272105898044465 0.635671179608893 0  0.9375 1 0  0.6690971819568612 0.9331530898202766 0  0.1073454944778885 0.7499206387638554 0  0.8699082999280406 0.2232403652524313 0  0.5773118091863964 0.3548027349159383 0  0.1354166666666667 0.1428571428571428 0  0.3125 0 0  0.8241684193077341 0.9257452995055244 0  0.4352314948354036 0.3586940847489378 0  0.4351301473778832 0.5819726043539077 0  0.8073232928518163 0.3419398170341962 0  0.7775949246947366 0.1298519409204575 0  0.6875 0 0  0.7413513991851041 0.457933324954483 0  0.939453125 0.841796875 0  0.5630355154606987 0.8171875156478349 0  0.9345238095238095 0.3461466592368577 0  0.9375 0 0  1 0.0625 0  0.0625 1 0  0 0.9375 0  0.06552178593177167 0.4969053669623468 0  0.1424866619031703 0.4130277709291224 0  0.1275287182444726 0.5422946908002588 0  0.2637686595586339 0.06413888464529549 0  0.2524263535491086 0.1697437503243817 0  0.7367218397988525 0.6888573970660841 0  0.0625 0 0  0 0.0625 0  0.8463594539285995 0.7578283617857982 0  0.3128751192101563 0.2851997374369947 0  0.4015281788351144 0.1806421385113692 0  0.1910251795116588 0.4553332197174453 0  0.287797471442006 0.5222621440543902 0  0.3962628745986055 0.8097380085535307 0  0.3505895299554843 0.7304878890838692 0  0.5019151500495276 0.9356042615328103 0  0.9374389419410134 0.4999931039076005 0  0.3125 1 0  0.1875 1 0  1 0.5625 0  0.4375 1 0  1 0.3125 0  1 0.4375 0  0.8125 0 0  1 0.1875 0  0.5625 0 0  0.1875 0 0  0 0.1875 0  0 0.5625 0  0 0.6875 0  0 0.8125 0  1 0.6875 0  1 0.8125 0  0.8021696218581627 0.6612893947866073 0  0.06154922295426143 0.6239401126946708 0  0.9359375 0.9359375 0  0.4666158024849896 0.7691515918155014 0  0.2318201265217025 0.7064974250277525 0  0.1565954253579966 0.6635489312486841 0  0.1598132503680848 0.7787147500325552 0  0.3146529991605639 0.8510876378205265 0  0.1461873209418733 0.05982804528877814 0  0.06109554988524315 0.2446551776247686 0  0.8054950308560754 0.5564226538848541 0  0.470541749491976 0.8853316336952531 0  0.6948472567465137 0.4042308563372457 0  0.8802828472348889 0.4658893256343853 0  0.6788075634946739 0.7974194205806069 0  0.2155048659603867 0.2428201584940968 0  0.8131223143423806 0.2132171049028394 0  0.4330798005432235 0.6671274900735726 0  0.6015279126162613 0.2187368078743274 0  0.8061636571464289 0.8703766630361714 0  0.7008230445061776 0.3478568388444072 0  0.8638466246958771 0.3147095987735538 0  0.204801534004265 0.8789209409594009 0  0.2449006736431132 0.9424182882803838 0  0.7611268409371427 0.2643056884799992 0  0.7552800864046191 0.7678006649959446 0  0.5983639638906616 0.864113435029236 0  0.1956559506814437 0.577281203577426 0  0.3527670268164207 0.1320469097565204 0  0.7530364577483248 0.3262386077083089 0  0.4535919187979363 0.4690107087451527 0  0.8824869791666666 0.8336588541666666 0  0.8814453125 0.9451171875 0  0.5582987942628019 0.622421666543858 0  0.6817532446064828 0.6939001801354731 0  0.3830295138888889 0.9450968952922078 0  0.4140603937012541 0.05211333372716105 0  0.5535864501303013 0.3060591985391672 0  0.6560130086346878 0.2729726562211558 0  0.890203140221684 0.5948314305427268 0  0.7043857725999024 0.593980890020804 0  0.5105843922695152 0.8016828014338627 0  0.05365910753708378 0.7315110031682004 0  0.616904573672261 0.4621186633436136 0  0.5338511646455415 0.387875898899613 0  0.5231769258947843 0.4477682463140762 0  0.650302973237622 0.7370722302085519 0  0.3927483139621257 0.4662414504529014 0  0.8034595960585199 0.4972538342758211 0  0.7738337841682438 0.9496376207663251 0  0.7193737507158268 0.954685447650112 0  0.482525916480686 0.5528257169991676 0  0.2533501157346781 0.2809495420003238 0  0.3118487924482243 0.5702930126570319 0  0.6257598847669529 0.4104163315430518 0  0.1354166666666667 0.1955605158730158 0  0.04166666666666666 0.15625 0  0.3956448985530264 0.6174149462065157 0  0.8102897701818546 0.3938784238208349 0  0.2641154190013625 0.8344469561943118 0  0.642852220770013 0.5068794586563659 0  0.05271458179508221 0.355846947336007 0  0.7021551360070266 0.8921457280225779 0  0.5692125776683765 0.1328512638850284 0  0.5206162811937602 0.04865158770992991 0  0.6001838442201555 0.04540556991297563 0  0.2597716608242787 0.4118346398477178 0  0.4040584599473195 0.3179589136784675 0  0.1480337679295207 0.8941560631483065 0  0.1344356707112281 0.9466251177415842 0  0.7114696411829317 0.4983917389078826 0  0.7585704698442475 0.5751926345944629 0  0.2189131956390871 0.04022068508159698 0  0.2476935455192043 0.1123642267635843 0  0.185995005654517 0.1365524537205238 0  0.6223414373308711 0.643380839165121 0  0.5732602596637543 0.7190051747306219 0  0.268358222364537 0.6586246524467934 0  0.3265879848129173 0.2369791782191225 0  0.1267095595787346 0.7034787238999181 0  0.1115202922226038 0.6421997933884982 0  0.3128688392940203 0.07260997451790079 0  0.550724900485678 0.9253360991633187 0  0.7142608810459105 0.2384904702214873 0  0.7045869185243887 0.1871826897887429 0  0.890625 0.734375 0  0.953125 0.765625 0  0.2111812642821677 0.8286209446459138 0  0.9590293078204457 0.09375 0  0.953431269039847 0.1435719386408004 0  0.04097069217955424 0.90625 0  0.04656873096015299 0.8564280613591996 0  0.1078743037981226 0.8541621766048062 0  0.8921256962018773 0.1458378233951939 0  0.8521576979194619 0.1084496634207678 0  0.8655663982740958 0.05464346096571447 0  0.04005659640905543 0.09375 0  0.1001448316533417 0.04246776244228261 
[...]
<CellData  Vectors="f_8394-1"> 
<DataArray  type="Float64"  Name="f_8394-1"  NumberOfComponents="3" format="ascii">2.0036774643621735e-04  1.6621156898077567e-04 0.0000000000000000e+00  4.0420078871514825e-05  7.7945104461964916e-05 0.0000000000000000e+00  6.1354640390469463e-05  7.1095058297467679e-05 0.0000000000000000e+00  2.6012116185073299e-05  2.8919061211357342e-05 0.0000000000000000e+00  8.6000159450024300e-05  1.7074603557060676e-04 0.0000000000000000e+00  6.7327479088119600e-05  5.2573162427534164e-05 0.0000000000000000e+00  3.7425811371312254e-05  5.5528859370645111e-04 0.0000000000000000e+00  4.1308118686777750e-05  7.8693718883697625e-04 0.0000000000000000e+00  6.7473362091465536e-04  2.1577158027483816e-05 0.0000000000000000e+00  3.0389513862488451e-04  1.4822752256693807e-05 0.0000000000000000e+00  1.2144983860517399e-04  4.2527479730152279e-05 0.0000000000000000e+00  4.8178556237320474e-04  5.7623889761322558e-04 0.0000000000000000e+00  3.7951133103123472e-04  7.1001240084267274e-04 0.0000000000000000e+00  5.5700575352032574e-04  4.0715691537366818e-04 0.0000000000000000e+00  6.9595040783774760e-04  3.2478579639817642e-04 0.0000000000000000e+00  5.9250795262398874e-04  2.1548291478829275e-04 0.0000000000000000e+00  4.0917090530748288e-04  4.5497595006047445e-04 0.0000000000000000e+00  1.7834982412730769e-04  1.9866087473612132e-04 0.0000000000000000e+00  9.4133596433571844e-05  4.9007454830051736e-04 0.0000000000000000e+00  2.8167226857418460e-04  8.3998919877320885e-05 0.0000000000000000e+00  3.0238211263706522e-04  4.9170341759185796e-05 0.0000000000000000e+00  5.4840352618875157e-04  2.0273173595320571e-04 0.0000000000000000e+00  6.0233451892165125e-04  1.9307320041849469e-04 0.0000000000000000e+00  7.3140871151850765e-05  5.4248063602760192e-04 0.0000000000000000e+00  1.0202527562046729e-04  2.5932381841583895e-04 0.0000000000000000e+00  1.2735127877883950e-04  6.3174052011383849e-04 0.0000000000000000e+00  7.9495787928037337e-06  4.2368190536126934e-05 0.0000000000000000e+00  4.8643723901528862e-04  4.5502627027686852e-05 0.0000000000000000e+00  4.3107925133750910e-05  7.7188454240494271e-04 0.0000000000000000e+00  2.9097354835987550e-04  2.9162533869689660e-05 0.0000000000000000e+00  6.5949206692826276e-04  9.1252049524406467e-05 0.0000000000000000e+00  2.6749405854767339e-04  3.6953523492669289e-04 0.0000000000000000e+00  2.8264432548388201e-04  1.3475907674940650e-04 0.0000000000000000e+00  4.0608716051242281e-04  6.4643508009685547e-04 0.0000000000000000e+00  1.2899734447779291e-04  4.9811077884943986e-05 0.0000000000000000e+00  1.5654415731197844e-04  9.7590037135372067e-05 0.0000000000000000e+00  1.9412967077235408e-04  2.6786494683732657e-04 0.0000000000000000e+00  9.9428820149063894e-05  5.6764872267035414e-04 0.0000000000000000e+00  4.3087472111543362e-04  3.0856431387927696e-05 0.0000000000000000e+00  1.6998907528282113e-04  1.6914871254957773e-04 0.0000000000000000e+00  1.6307222711538420e-04  1.6099339565756968e-04 0.0000000000000000e+00  2.9397768274204308e-04  1.6697916992715938e-04 0.0000000000000000e+00  6.3865757827400219e-04  2.9484297885893073e-04 0.0000000000000000e+00  6.9779445851479997e-04  3.0967416536889177e-04 0.0000000000000000e+00  1.0116040458995786e-04  1.8245656967106607e-05 0.0000000000000000e+00  8.2934701811206667e-04  4.0880057118432799e-04 0.0000000000000000e+00  5.8839052613672159e-04  2.9646722276013886e-04 0.0000000000000000e+00  5.7228629714803666e-05  3.8596539579870105e-05 0.0000000000000000e+00  8.0803706105399557e-04  6.0341429901771676e-04 0.0000000000000000e+00  7.7009912165701617e-04  4.8088718877522732e-04 0.0000000000000000e+00  6.6818816849182217e-04  6.3079683033861122e-04 0.0000000000000000e+00  7.4479685933094618e-04  7.1327127456982968e-04 0.0000000000000000e+00  7.9556076173111406e-05  2.9914465773331101e-04 0.0000000000000000e+00  1.4781761270216367e-04  9.0648963894029226e-05 0.0000000000000000e+00  8.2032333306428535e-05  1.7151561002328483e-04 0.0000000000000000e+00  5.0196343963040436e-04  5.0606041654796118e-04 0.0000000000000000e+00  3.9639698825660663e-04  3.6139919044980836e-04 0.0000000000000000e+00  3.7622338396462997e-04  5.5540405573638076e-05 0.0000000000000000e+00  1.4371887167602336e-04  2.8816704489490669e-05 0.0000000000000000e+00  3.0028964896536024e-05  6.9731454476512546e-04 0.0000000000000000e+00  3.7970991929500524e-05  6.8236569699639841e-04 0.0000000000000000e+00  6.2590404057185180e-04  3.6754259328716481e-05 0.0000000000000000e+00  3.0324929353126966e-05  1.3015914989261308e-04 0.0000000000000000e+00  3.7965225416108868e-05  3.2121144067278527e-04 0.0000000000000000e+00  4.2183221189853155e-05  3.4955942237785480e-04 0.0000000000000000e+00  5.8132143771506676e-04  1.1729840907922213e-04 0.0000000000000000e+00  7.7641437673884410e-05  5.2716916880585197e-04 0.0000000000000000e+00  7.3075041721873976e-04  2.1282470452391030e-05 0.0000000000000000e+00  3.5295409878573228e-05  7.6812139881795899e-04 0.0000000000000000e+00  2.5931274756736179e-04  8.2212285735971046e-04 0.0000000000000000e+00  2.8118551372399069e-04  7.5992042740289625e-04 0.0000000000000000e+00  6.7010399658315478e-04  3.8002302011973883e-04 0.0000000000000000e+00  6.6849018982095948e-05  9.5283294400613726e-05 0.0000000000000000e+00  1.9763863133454365e-04  3.0818114746040883e-04 0.0000000000000000e+00  3.3029059748933178e-04  4.4806647103470338e-04 0.0000000000000000e+00  1.8359289521407109e-04  6.0801986329428080e-04 0.0000000000000000e+00  2.6863992475675505e-04  6.1642684528618544e-04 0.0000000000000000e+00  2.5669117828269311e-04  4.1624192240227379e-04 0.0000000000000000e+00  1.9963648782470600e-04  5.2323519699322733e-04 0.0000000000000000e+00  2.8283679048465895e-05  4.1585761553467998e-04 0.0000000000000000e+00  2.7257114184284315e-05  3.2833266861465699e-04 0.0000000000000000e+00  3.1978205868279805e-05  2.9166450353502831e-04 0.0000000000000000e+00  8.0854921950910481e-05  2.4535347429944425e-04 0.0000000000000000e+00  5.9308160385590546e-05  7.9690967888293939e-04 0.0000000000000000e+00  6.9134868508749427e-04  8.7601068580468036e-05 0.0000000000000000e+00  4.5295052471199248e-04  5.3035649478149026e-05 0.0000000000000000e+00  4.2796994646082350e-04  1.4795384407644612e-04 0.0000000000000000e+00  6.5773821551110836e-04  1.2679052406153706e-04 0.0000000000000000e+00  4.1988211783268215e-04  2.1700631382442112e-04 0.0000000000000000e+00  2.6173198563613647e-04  1.8273047109798187e-04 0.0000000000000000e+00  3.6384712223310421e-04  4.9096443291331674e-05 0.0000000000000000e+00  3.4034164812848792e-04  1.0020487192305713e-04 0.0000000000000000e+00  2.3881552500269873e-05  5.2049983914104253e-05 0.0000000000000000e+00  3.6451116580677749e-05  1.0455257055936560e-05 0.0000000000000000e+00  6.4009000898820911e-05  6.5654546696417932e-05 0.0000000000000000e+00  1.0066644421522502e-04  5.7099897763528872e-05 0.0000000000000000e+00  1.3403328546274332e-04  3.7175207831988614e-05 0.0000000000000000e+00  5.1208159447820327e-04  8.1897763312747897e-04 0.0000000000000000e+00  4.9864486701824194e-04  7.5186351118663162e-04 0.0000000000000000e+00  2.3545471676080407e-04  5.4336419212188105e-05 0.0000000000000000e+00  1.9522638472592438e-04  4.3210604629829549e-05 0.0000000000000000e+00  2.1064746914772409e-04  9.4817672378908150e-05 0.0000000000000000e+00  1.9568990938837477e-04  6.4077563320592419e-05 0.0000000000000000e+00  4.1602611706939921e-04  3.2400823367391087e-04 0.0000000000000000e+00  4.0294554057469767e-04  2.7417312020784352e-04 0.0000000000000000e+00  5.3422351837035284e-04  1.4321149215892578e-04 0.0000000000000000e+00  4.1329039800120829e-04  1.8899094130004593e-04 0.0000000000000000e+00  4.6102982027015709e-04  6.5020199026821768e-05 0.0000000000000000e+00  3.9218779399497876e-04  3.5869685302776005e-05 0.0000000000000000e+00  2.2432373996829492e-05  6.6537874237152742e-04 0.0000000000000000e+00  3.4262169001960794e-05  6.6990477056628626e-04 0.0000000000000000e+00  7.6685380347647986e-04  2.4869984902816972e-05 0.0000000000000000e+00  7.3550639976094822e-04  5.5476857226313854e-05 0.0000000000000000e+00  5.7133920227217430e-04  2.2681708411519650e-05 0.0000000000000000e+00  5.4896043167461871e-04  1.2675881753060464e-05 0.0000000000000000e+00  4.6214415673288089e-05  5.5254712765516782e-04 0.0000000000000000e+00  9.0106915083524344e-05  4.0419110926824829e-04 0.0000000000000000e+00  7.5714524937624836e-04  8.5606320150840104e-05 0.0000000000000000e+00  6.2917018264653990e-04  4.1556189004725508e-04 0.0000000000000000e+00  5.3902694129699181e-04  4.8208562700190725e-04 0.0000000000000000e+00  2.3386717020837703e-04  6.5571503284070842e-04 0.0000000000000000e+00  2.2957958034686184e-04  7.6727415085586282e-04 0.0000000000000000e+00  7.1673340509606774e-05  2.9814477757246597e-04 0.0000000000000000e+00  1.3619034273563730e-04  3.5321837797767686e-04 0.0000000000000000e+00  2.5754343344198244e-05  2.7082004985767480e-04 0.0000000000000000e+00  4.3649597229305773e-05  2.7429796210396156e-04 0.0000000000000000e+00  7.1050285256374910e-04  2.2908427550467688e-04 0.0000000000000000e+00  7.6423079385203702e-04  2.7970051525238012e-04 0.0000000000000000e+00  1.8885416293784206e-04  7.1650704638697089e-04 0.0000000000000000e+00  1.8977156766211177e-04  4.1724687986905627e-04 0.0000000000000000e+00  2.9396022032609294e-04  3.2985925068719035e-04 0.0000000000000000e+00  3.3420659952890767e-04  3.0711263757985703e-04 0.0000000000000000e+00  3.1243150144471491e-04  6.5494716125390163e-04 0.0000000000000000e+00  2.7942376507303189e-04  6.3865947076283027e-04 0.0000000000000000e+00  1.4401474017977872e-04  6.4179821415737983e-04 0.0000000000000000e+00  1.7363298036968900e-04  7.1752186808316616e-04 0.0000000000000000e+00  3.7880622169491067e-04  3.5199927028272060e-04 0.0000000000000000e+00  2.4405226036133343e-04  3.7324782918253058e-04 0.0000000000000000e+00  4.2936814462988593e-04  5.1403545642946715e-05 0.0000000000000000e+00  4.6599710351513440e-04  7.6584461157486761e-05 0.0000000000000000e+00  4.5478088296107615e-05  6.7336980266920635e-05 0.0000000000000000e+00  3.6145315106731439e-05  4.5812610486928263e-05 0.0000000000000000e+00  2.1657049423264976e-05  1.0240384223308811e-04 0.0000000000000000e+00  3.8792698910089421e-05  6.8452853103129888e-05 0.0000000000000000e+00  4.3944224815697672e-05  2.5352474490665072e-04 0.0000000000000000e+00  5.9371973356980788e-05  1.5788984512890130e-04 0.0000000000000000e+00  7.5829491684445546e-04  3.8791442381357110e-04 0.0000000000000000e+00  5.8939725118332216e-04  3.4304790461356117e-04 0.0000000000000000e+00  3.7980057351965203e-04  6.5735274523724110e-04 0.0000000000000000e+00  4.2153725118221710e-04  7.7374174470251481e-04 0.0000000000000000e+00  6.0158197055422221e-05  4.4728679674627537e-04 0.0000000000000000e+00  7.0907983449705790e-05  3.8434116316274906e-04 0.0000000000000000e+00  2.2327208048374167e-05  1.8019534712219686e-04 0.0000000000000000e+00  1.7794581336569885e-05  1.0996733267265124e-04 0.0000000000000000e+00  2.9050621152634124e-05  1.5092029830911390e-04 0.0000000000000000e+00  9.6944026498943568e-05  2.5117050826029761e-04 0.0000000000000000e+00  1.2318821595681055e-04  1.9470103754902097e-04 0.0000000000000000e+00  2.2403654092238904e-04  5.1588581751706020e-05 0.0000000000000000e+00  2.1245228767101330e-04  1.2475190849397564e-04 0.0000000000000000e+00  1.5029556660865168e-04  2.0771557077616494e-04 0.0000000000000000e+00  1.4230283883354418e-04  1.1491553394447955e-04 0.0000000000000000e+00  2.6570256735698316e-04  1.6012692689798468e-04 0.0000000000000000e+00  2.4152041843280523e-04  2.4909985753917457e-04 0.0000000000000000e+00  6.9924885853201856e-04  1.8239802975270790e-04 0.0000000000000000e+00  5.7148936077684688e-04  2.1648928145879658e-04 0.0000000000000000e+00  5.2981276156310506e-04  5.2805747433038255e-04 0.0000000000000000e+00  4.9295036682505690e-04  5.4948418318937213e-04 0.0000000000000000e+00  4.2844327552698629e-04  2.8690103947107961e-04 0.0000000000000000e+00  3.3599854704726486e-04  2.0542284639547004e-04 0.0000000000000000e+00  6.2218404643789443e-05  1.9963187722660670e-04 0.0000000000000000e+00  6.4150947200147392e-05  1.3383682720842304e-04 0.0000000000000000e+00  1.4123417532000494e-04  6.7847235588896267e-04 0.0000000000000000e+00  1.0192258314962632e-04  8.3826343673721270e-04 0.0000000000000000e+00  7.0763183740603917e-04  8.7345448197403421e-04 0.0000000000000000e+00  6.6750349258827915e-04  7.7758685981025883e-04 0.0000000000000000e+00  2.2431832194872001e-04  2.6130540711081889e-04 0.0000000000000000e+00  1.9164111663456438e-04  3.2556475102987791e-04 0.0000000000000000e+00  4.1363146268714340e-04  7.2550553970775382e-05 0.0000000000000000e+00  2.7026049210053803e-04  8.5780650017584987e-05 0.0000000000000000e+00  7.8188910542436511e-04  7.5127127775871715e-04 0.0000000000000000e+00  7.3104459893586339e-04  7.5545233462113472e-04 0.0000000000000000e+00  4.1886569453137909e-05  1.1331044386712563e-04 0.0000000000000000e+00  3.0448037485297148e-05  1.3265193071273796e-04 0.0000000000000000e+00  2.3519129232931892e-04  8.1453130518796936e-04 0.0000000000000000e+00  3.3372455013768121e-04  8.2280751328987864e-04 0.0000000000000000e+00  3.8960198156377329e-04  7.6197015265590479e-04 0.0000000000000000e+00  3.3628645777197916e-04  7.9825731290372899e-04 0.0000000000000000e+00  4.9037108117692073e-04  2.4353250754795927e-05 0.0000000000000000e+00  1.5786462471528224e-04  6.1702103241788070e-05 0.0000000000000000e+00  1.6647706435980533e-04  6.1502999552497610e-05 0.0000000000000000e+00  4.1023640633744082e-04  3.5059433865741274e-04 0.0000000000000000e+00  3.9981334013904768e-04  3.9459420493967337e-04 0.0000000000000000e+00  9.4585913658930661e-05  3.4594318180104685e-04 0.0000000000000000e+00  7.7849299171317364e-05  3.4121849305912550e-04 0.0000000000000000e+00  4.3787381226698379e-04  2.1440975452702608e-05 0.0000000000000000e+00  4.3881334934600143e-04  3.1636851455586199e-05 0.0000000000000000e+00  3.7492864637619504e-04  5.1686431379465196e-05 0.0000000000000000e+00  3.6470135884228904e-04  5.1573879481101846e-05 0.0000000000000000e+00  2.1396264734571753e-04  5.1773071627188262e-04 0.0000000000000000e+00  1.9943681403190183e-04  3.9643287540857647e-04 0.0000000000000000e+00  1.7089882043872250e-04  3.9171594612135102e-04 0.0000000000000000e+00  1.9772006077140142e-04  4.4304712209950695e-04 0.0000000000000000e+00  4.0638354491867358e-05  5.3232777945580894e-05 0.0000000000000000e+00  4.1398194375550173e-05  1.1983030399896043e-04 0.0000000000000000e+00  3.0439873587938265e-04  2.8178443387624931e-04 0.0000000000000000e+00  3.3903843229585650e-04  2.8926592806423232e-04 0.0000000000000000e+00  1.5315147266161010e-04  1.6769353257350527e-04 0.0000000000000000e+00  6.1161742221546789e-05  1.9885105725942897e-04 0.0000000000000000e+00  1.6501753456377844e-04  1.9390422664677145e-05 0.0000000000000000e+00  2.3555498726351298e-04  5.4760595920941646e-05 0.0000000000000000e+00  2.4041184970526394e-04  3.8525356731645140e-05 0.0000000000000000e+00  1.9850581856457349e-04  4.8066019839898303e-05 0.0000000000000000e+00  1.4212495029361971e-04  6.0345730387302274e-05 0.0000000000000000e+00  1.9337364643944778e-04  4.5513434260669270e-05 0.0000000000000000e+00  1.6131083984151644e-04  3.0576556588889751e-05 0.0000000000000000e+00  7.8708556587949016e-04  4.1954973745551703e-04 0.0000000000000000e+00  7.8792019397990343e-04  4.8775821473433717e-04 0.0000000000000000e+00  7.2914125916833891e-04  4.0821956634647821e-04 0.0000000000000000e+00  7.5700699665308586e-04  7.6226529216917864e-04 0.0000000000000000e+00  4.8113417129649324e-04  8.4051133423005309e-04 0.0000000000000000e+00  2.8440516862209125e-05  5.0082830842775180e-04 0.0000000000000000e+00  2.8530436801201535e-05  5.1266439808234478e-04 0.0000000000000000e+00  6.1670619648078462e-04  6.9002785697419886e-05 0.0000000000000000e+00  7.6135170126534273e-04  5.7324349260831413e-05 0.0000000000000000e+00  3.1052004727035023e-04  1.8534880666301541e-04 0.0000000000000000e+00  1.8388781262114481e-04  1.3996461464676533e-04 0.0000000000000000e+00  5.9904635277967290e-05  3.4215998109566212e-05 0.0000000000000000e+00  3.8072114391032993e-05  5.4620863110042736e-05 0.0000000000000000e+00  6.1970196194777410e-04  6.4246571151378609e-04 0.0000000000000000e+00  7.0846871727702572e-04  6.5014372489776676e-04 0.0000000000000000e+00  1.4230409443896392e-04  1.0968156524762423e-04 0.0000000000000000e+00  2.0076637535710839e-04  9.9139341750512710e-05 0.0000000000000000e+00  1.0373689323371270e-04  4.7159046113061804e-04 0.0000000000000000e+00  1.2105194137397761e-04  3.3937205398625937e-04 0.0000000000000000e+00  5.9525020583635064e-04  7.2553026487737874e-05 0.0000000000000000e+00  6.7059711597754462e-04  9.9981852928163838e-05 0.0000000000000000e+00  6.8491935347246027e-04  3.7300496232069222e-05 0.0000000000000000e+00  5.0806631141815997e-04  3.0727154971478872e-05 0.0000000000000000e+00  4.2832390247579715e-04  1.4971605900395470e-05 0.0000000000000000e+00  4.4571869549494685e-04  2.0470283544002881e-04 0.0000000000000000e+00  5.0633080135092142e-04  1.1269031496017303e-04 0.0000000000000000e+00  7.6819026940850047e-04  6.6143596799479721e-04 0.0000000000000000e+00  2.5427597726938210e-04  6.2277777500478943e-04 0.0000000000000000e+00  2.3324301335151673e-04  4.8546979562438033e-04 0.0000000000000000e+00  7.4977858160912023e-04  1.4736449344630685e-04 0.0000000000000000e+00  6.8599004515254396e-04  1.7817391260315695e-04 0.0000000000000000e+00  9.0123450113482819e-04  5.2804046903547994e-06 0.0000000000000000e+00  1.9673478367662410e-05  7.8304666336824025e-04 0.0000000000000000e+00  7.5198478468690225e-06  8.9812354080518473e-04 0.0000000000000000e+00  3.9714655941347252e-05  1.7277497956478424e-04 0.0000000000000000e+00  2.2872526080828657e-05  2.5782023072331688e-04 0.0000000000000000e+00  2.3896974470824342e-05  1.8271099832477104e-04 0.0000000000000000e+00  3.0970386223344583e-05  1.3725924116629297e-04 0.0000000000000000e+00  7.0928230529409563e-05  2.0581600627280521e-04 0.0000000000000000e+00  6.0536156588470398e-05  3.0202206085349958e-04 0.0000000000000000e+00  8.6014478913046054e-05  5.4566676140251534e-05 0.0000000000000000e+00  7.6655483211634853e-05  2.1908041529961386e-05 0.0000000000000000e+00  5.2633086207971658e-05  5.4894708729214347e-05 0.0000000000000000e+00  7.1015688002591066e-05  3.0503962895882148e-05 0.0000000000000000e+00  4.4786131929708132e-04  4.3833721821937905e-04 0.0000000000000000e+00  5.1228121928402590e-04  4.2409288435966503e-04 0.0000000000000000e+00  2.6058392963945113e-05  -1.9153475952971058e-06 0.0000000000000000e+00  2.6854174130211610e-05  2.2857612131326411e-06 0.0000000000000000e+00  2.5698384969907728e-05  5.0869159428852983e-05 0.0000000000000000e+00  7.0175852349646213e-04  5.4584159166958630e-04 0.0000000000000000e+00  6.5351187595765478e-04  6.4395325011118898e-04 0.0000000000000000e+00  9.6215697562248239e-05  8.5964543514157880e-05 0.0000000000000000e+00  6.6366128311736352e-05  6.7404849537465800e-05 0.0000000000000000e+00  1.2827047757044452e-04  3.9381255088843225e-05 0.0000000000000000e+00  2.5257947798033403e-04  3.6742763400387753e-05 0.0000000000000000e+00  1.0158068925762466e-04  1.9183341013469848e-04 0.0000000000000000e+00  5.0122465896552198e-05  2.5125364747817443e-04 0.0000000000000000e+00  7.9774752965394867e-05  2.7028377865424814e-04 0.0000000000000000e+00  1.0434313010543149e-04  2.6252003323876583e-04 0.0000000000000000e+00  1.2091734191367440e-04  5.8498284638013650e-04 0.0000000000000000e+00  1.6222331805210231e-04  5.9179525878928167e-04 0.0000000000000000e+00  1.3789685793881334e-04  4.1310913157783667e-04 0.0000000000000000e+00  1.1748974847587969e-04  5.0650792008517321e-04 0.0000000000000000e+00  2.7081942491181087e-04  8.3682161039635961e-04 0.0000000000000000e+00  2.2533505356241349e-04  8.8310370363748269e-04 0.0000000000000000e+00  8.20