<?xml version="1.0"?>
<VTKFile type="UnstructuredGrid"  version="0.1"  >
<UnstructuredGrid>
<Piece  NumberOfPoints="1385" NumberOfCells="2640">
<Points>
<DataArray  type="Float64"  NumberOfComponents="3"  format="ascii">0 0 0  1 0 0  1 1 0  0 1 0  0.5 0 0  1 0.5 0  0.5 1 0  0 0.5 0  0.5 0.5 0  0 0.25 0  0.25 0 0  0.25 1 0  0 0.75 0  1 0.25 0  0.75 0 0  1 0.75 0  0.75 1 0  0.7083333333333333 0.2916666666666667 0  0.2916666666666666 0.7083333333333334 0  0.375 0.25 0  0.75 0.625 0  0.2569444444444444 0.4652777777777778 0  0.5366379310344828 0.7535919540229885 0  0.1875 0.1875 0  0.8125 0.8125 0  0.869047619047619 0.375 0  0.1450441919191919 0.6052714646464646 0  0.375 0.8690476190476191 0  0.5526960784313725 0.1825980392156862 0  0.8385416666666666 0.1614583333333334 0  0.1614583333333333 0.8385416666666667 0  0.6736111111111112 0.4652777777777778 0  0.1367521367521368 0.3477564102564102 0  0.6570970491253563 0.8648656830417855 0  0.5102479397556124 0.3386260301221938 0  0.3654513888888889 0.5737847222222222 0  0.6929750044954185 0.1362784921584263 0  0.388576102743835 0.411911725237599 0  0.6091269841269842 0.5942460317460317 0  0.875 0.6875 0  0.427278890279516 0.119889445139758 0  0.8544456845238095 0.5213913690476191 0  0.125 0 0  0 0.125 0  1 0.875 0  0.875 1 0  0.1280008648150532 0.4769292340226777 0  0.2695382451711197 0.3321750950221553 0  0.7031567235715964 0.7447810921428012 0  0.625 0 0  0.375 0 0  0.125 1 0  0.875 0 0  0 0.375 0  0 0.625 0  1 0.375 0  0.375 1 0  1 0.125 0  0 0.875 0  0.625 1 0  1 0.625 0  0.2979288363930608 0.1201429454643536 0  0.410919540229885 0.7484605911330049 0  0.5325041980395562 0.878905151526474 0  0.4831670727569156 0.6331060043826487 0  0.1735997378973042 0.7204747378973043 0  0.2534919507575758 0.5772372159090909 0  0.2633928571428572 0.8876488095238095 0  0.8199404761904761 0.2730654761904762 0  0.75830270586982 0.3919383189517417 0  0.5750282248382511 0.4237522353023667 0  0.6008360210023379 0.2794828358598495 0  0.08163442644334186 0.6821295860397322 0  0.08333333333333333 0.1875 0  0.2028380815996574 0.08844602719988583 0  0.2766521142611967 0.2325436572164097 0  0.90625 0.78125 0  0.890625 0.890625 0  0.7545696325008384 0.8973565441669461 0  0.5625 0.08086590340834317 0  0.09077380952380953 0.09077380952380952 0  0.4610923478694773 0.209034015149656 0  0.7542527598351648 0.5248380520595106 0  0.6459235536037465 0.3619913988405765 0  0.7560381768882634 0.20506142233852 0  0.07073252688172042 0.8125 0  0.0924753097241701 0.9078102849914793 0  0.9292674731182795 0.1875 0  0.9075246902758297 0.09218971500852073 0  0.8125 0.07073252688172045 0  0.2400955776842301 0.7869705776842302 0  0.9121050213379069 0.2781978201831695 0  0.7916878157143976 0.7239689078571988 0  0.9345238095238094 0.4375 0  0.4375 0.9345238095238095 0  0.3725616989755203 0.6651895248862173 0  0.06536271996350887 0.5625 0  0.9348362560379583 0.5625 0  0.456646798987055 0.8277247094351965 0  0.1875 0.9355758238725954 0  0.6169761231634859 0.6939779188977889 0  0.6226854751147515 0.7827911461419014 0  0.3305695598137626 0.7901697871282585 0  0.5865305325818898 0.5101085479043448 0  0.6622701297028378 0.2177663989757395 0  0.1354166666666667 0.2591702279202279 0  0 0.3125 0  0.2094429575680048 0.3936361846162499 0  0.836666296419157 0.607917407161686 0  0.6875 1 0  0.214261555450504 0.6492551722020035 0  0 0.4375 0  0.07731537126068377 0.40625 0  0.3427725432967068 0.4879566233699599 0  0.3550792513951871 0.3331953632609953 0  0.4462473953896857 0.2887834789342508 0  0.4747801464819794 0.417386052030127 0  0.8229836475148948 0.4443292349237342 0  0.7322605135514757 0.8199240278289671 0  0.6756431877205955 0.5468989748126787 0  0.1968419507215863 0.5194573482612496 0  0.3285590277777778 0.9345238095238095 0  0.8125 1 0  0.4198917601920009 0.5134893045331258 0  0.5232405503206691 0.2595791787880157 0  1 0.9375 0  0.1987510870015086 0.3025185951894431 0  0.5625 1 0  0.6005390654136388 0.9228110509230952 0  0.6411254848194414 0.07704872765442942 0  0.3357233162523242 0.1855113224530532 0  0.6730653396610877 0.6393887462324165 0  0.310966987234063 0.6240019765311626 0  0.7368737836204349 0.07457755202327881 0  0.6192316414418171 0.1485238406378594 0  0.5432429670607106 0.678552703844006 0  0.4754371679695679 0.7103946803120881 0  0.07501324890749672 0.3043839897335739 0  0.5358146975860403 0.5688321463205916 0  0.3115271739500156 0.3982137365971444 0  0.3625191397122174 0.0767854603650549 0  0.5024029442563831 0.1264128223758444 0  0.4375 0 0  0.4699946908887376 0.06379961173775725 0  0.9375 0.71875 0  0.9272105898044465 0.635671179608893 0  0.9375 1 0  0.6690971819568612 0.9331530898202766 0  0.1073454944778885 0.7499206387638554 0  0.8699082999280406 0.2232403652524313 0  0.5773118091863964 0.3548027349159383 0  0.1354166666666667 0.1428571428571428 0  0.3125 0 0  0.8241684193077341 0.9257452995055244 0  0.4352314948354036 0.3586940847489378 0  0.4351301473778832 0.5819726043539077 0  0.8073232928518163 0.3419398170341962 0  0.7775949246947366 0.1298519409204575 0  0.6875 0 0  0.7413513991851041 0.457933324954483 0  0.939453125 0.841796875 0  0.5630355154606987 0.8171875156478349 0  0.9345238095238095 0.3461466592368577 0  0.9375 0 0  1 0.0625 0  0.0625 1 0  0 0.9375 0  0.06552178593177167 0.4969053669623468 0  0.1424866619031703 0.4130277709291224 0  0.1275287182444726 0.5422946908002588 0  0.2637686595586339 0.06413888464529549 0  0.2524263535491086 0.1697437503243817 0  0.7367218397988525 0.6888573970660841 0  0.0625 0 0  0 0.0625 0  0.8463594539285995 0.7578283617857982 0  0.3128751192101563 0.2851997374369947 0  0.4015281788351144 0.1806421385113692 0  0.1910251795116588 0.4553332197174453 0  0.287797471442006 0.5222621440543902 0  0.3962628745986055 0.8097380085535307 0  0.3505895299554843 0.7304878890838692 0  0.5019151500495276 0.9356042615328103 0  0.9374389419410134 0.4999931039076005 0  0.3125 1 0  0.1875 1 0  1 0.5625 0  0.4375 1 0  1 0.3125 0  1 0.4375 0  0.8125 0 0  1 0.1875 0  0.5625 0 0  0.1875 0 0  0 0.1875 0  0 0.5625 0  0 0.6875 0  0 0.8125 0  1 0.6875 0  1 0.8125 0  0.8021696218581627 0.6612893947866073 0  0.06154922295426143 0.6239401126946708 0  0.9359375 0.9359375 0  0.4666158024849896 0.7691515918155014 0  0.2318201265217025 0.7064974250277525 0  0.1565954253579966 0.6635489312486841 0  0.1598132503680848 0.7787147500325552 0  0.3146529991605639 0.8510876378205265 0  0.1461873209418733 0.05982804528877814 0  0.06109554988524315 0.2446551776247686 0  0.8054950308560754 0.5564226538848541 0  0.470541749491976 0.8853316336952531 0  0.6948472567465137 0.4042308563372457 0  0.8802828472348889 0.4658893256343853 0  0.6788075634946739 0.7974194205806069 0  0.2155048659603867 0.2428201584940968 0  0.8131223143423806 0.2132171049028394 0  0.4330798005432235 0.6671274900735726 0  0.6015279126162613 0.2187368078743274 0  0.8061636571464289 0.8703766630361714 0  0.7008230445061776 0.3478568388444072 0  0.8638466246958771 0.3147095987735538 0  0.204801534004265 0.8789209409594009 0  0.2449006736431132 0.9424182882803838 0  0.7611268409371427 0.2643056884799992 0  0.7552800864046191 0.7678006649959446 0  0.5983639638906616 0.864113435029236 0  0.1956559506814437 0.577281203577426 0  0.3527670268164207 0.1320469097565204 0  0.7530364577483248 0.3262386077083089 0  0.4535919187979363 0.4690107087451527 0  0.8824869791666666 0.8336588541666666 0  0.8814453125 0.9451171875 0  0.5582987942628019 0.622421666543858 0  0.6817532446064828 0.6939001801354731 0  0.3830295138888889 0.9450968952922078 0  0.4140603937012541 0.05211333372716105 0  0.5535864501303013 0.3060591985391672 0  0.6560130086346878 0.2729726562211558 0  0.890203140221684 0.5948314305427268 0  0.7043857725999024 0.593980890020804 0  0.5105843922695152 0.8016828014338627 0  0.05365910753708378 0.7315110031682004 0  0.616904573672261 0.4621186633436136 0  0.5338511646455415 0.387875898899613 0  0.5231769258947843 0.4477682463140762 0  0.650302973237622 0.7370722302085519 0  0.3927483139621257 0.4662414504529014 0  0.8034595960585199 0.4972538342758211 0  0.7738337841682438 0.9496376207663251 0  0.7193737507158268 0.954685447650112 0  0.482525916480686 0.5528257169991676 0  0.2533501157346781 0.2809495420003238 0  0.3118487924482243 0.5702930126570319 0  0.6257598847669529 0.4104163315430518 0  0.1354166666666667 0.1955605158730158 0  0.04166666666666666 0.15625 0  0.3956448985530264 0.6174149462065157 0  0.8102897701818546 0.3938784238208349 0  0.2641154190013625 0.8344469561943118 0  0.642852220770013 0.5068794586563659 0  0.05271458179508221 0.355846947336007 0  0.7021551360070266 0.8921457280225779 0  0.5692125776683765 0.1328512638850284 0  0.5206162811937602 0.04865158770992991 0  0.6001838442201555 0.04540556991297563 0  0.2597716608242787 0.4118346398477178 0  0.4040584599473195 0.3179589136784675 0  0.1480337679295207 0.8941560631483065 0  0.1344356707112281 0.9466251177415842 0  0.7114696411829317 0.4983917389078826 0  0.7585704698442475 0.5751926345944629 0  0.2189131956390871 0.04022068508159698 0  0.2476935455192043 0.1123642267635843 0  0.185995005654517 0.1365524537205238 0  0.6223414373308711 0.643380839165121 0  0.5732602596637543 0.7190051747306219 0  0.268358222364537 0.6586246524467934 0  0.3265879848129173 0.2369791782191225 0  0.1267095595787346 0.7034787238999181 0  0.1115202922226038 0.6421997933884982 0  0.3128688392940203 0.07260997451790079 0  0.550724900485678 0.9253360991633187 0  0.7142608810459105 0.2384904702214873 0  0.7045869185243887 0.1871826897887429 0  0.890625 0.734375 0  0.953125 0.765625 0  0.2111812642821677 0.8286209446459138 0  0.9590293078204457 0.09375 0  0.953431269039847 0.1435719386408004 0  0.04097069217955424 0.90625 0  0.04656873096015299 0.8564280613591996 0  0.1078743037981226 0.8541621766048062 0  0.8921256962018773 0.1458378233951939 0  0.8521576979194619 0.1084496634207678 0  0.8655663982740958 0.05464346096571447 0  0.04005659640905543 0.09375 0  0.1001448316533417 0.04246776244228261 
[...]
<CellData  Vectors="f_8394-1"> 
<DataArray  type="Float64"  Name="f_8394-1"  NumberOfComponents="3" format="ascii">2.1084739060178912e-04  1.7454175529665745e-04 0.0000000000000000e+00  4.1380113343352174e-05  8.1564114020089913e-05 0.0000000000000000e+00  6.4396218210143841e-05  7.4269123393904554e-05 0.0000000000000000e+00  2.6897474028976265e-05  2.9450926031450720e-05 0.0000000000000000e+00  8.9805009439713454e-05  1.7912796468838693e-04 0.0000000000000000e+00  7.0021622986601785e-05  5.3730804889469848e-05 0.0000000000000000e+00  3.7830263694068597e-05  5.8628272904029551e-04 0.0000000000000000e+00  4.3323526070228048e-05  8.2997680126743409e-04 0.0000000000000000e+00  7.1188580036798249e-04  2.1801644416761699e-05 0.0000000000000000e+00  3.2042962132328270e-04  1.5791466331555743e-05 0.0000000000000000e+00  1.2751218881370120e-04  4.3886255679521323e-05 0.0000000000000000e+00  5.0858451928828140e-04  6.0820713045174829e-04 0.0000000000000000e+00  4.0058657222136781e-04  7.4930574160899353e-04 0.0000000000000000e+00  5.8770833064919839e-04  4.2972047401911310e-04 0.0000000000000000e+00  7.3430223701379253e-04  3.4283234961995983e-04 0.0000000000000000e+00  6.2487464925007198e-04  2.2691157183715521e-04 0.0000000000000000e+00  4.3169374681605738e-04  4.8006813791954135e-04 0.0000000000000000e+00  1.8775521409222307e-04  2.0866838947593576e-04 0.0000000000000000e+00  9.8736842857146447e-05  5.1630289752950661e-04 0.0000000000000000e+00  2.9676957224282805e-04  8.7511781599606918e-05 0.0000000000000000e+00  3.1881304053256232e-04  5.0766130289542272e-05 0.0000000000000000e+00  5.7849317697976170e-04  2.1364188429794586e-04 0.0000000000000000e+00  6.3522882287761939e-04  2.0367125951061341e-04 0.0000000000000000e+00  7.6872576597088440e-05  5.7220924394354110e-04 0.0000000000000000e+00  1.0756409618244352e-04  2.7277375710127536e-04 0.0000000000000000e+00  1.3409643357673660e-04  6.6569856683254991e-04 0.0000000000000000e+00  8.1011977777724029e-06  4.2484170554769623e-05 0.0000000000000000e+00  5.1243254150822016e-04  4.6985194608166331e-05 0.0000000000000000e+00  4.5420925944784350e-05  8.1405624416272548e-04 0.0000000000000000e+00  3.0704311819753705e-04  3.0527148497912800e-05 0.0000000000000000e+00  6.9524190274087639e-04  9.5863034015564318e-05 0.0000000000000000e+00  2.8251398740493616e-04  3.8968293203770632e-04 0.0000000000000000e+00  2.9881533205676909e-04  1.4161872342634483e-04 0.0000000000000000e+00  4.2859298076312918e-04  6.8225314825381706e-04 0.0000000000000000e+00  1.3496189611196654e-04  5.2412939342367303e-05 0.0000000000000000e+00  1.6280507758079324e-04  1.0213211457424055e-04 0.0000000000000000e+00  2.0387633785775967e-04  2.8151666354292985e-04 0.0000000000000000e+00  1.0420782269182489e-04  5.9888433769595350e-04 0.0000000000000000e+00  4.5517374623267430e-04  3.1040830217792369e-05 0.0000000000000000e+00  1.7844678848633148e-04  1.7836425182934132e-04 0.0000000000000000e+00  1.7104032049049776e-04  1.6985835398836829e-04 0.0000000000000000e+00  3.0979651019652011e-04  1.7540617809730889e-04 0.0000000000000000e+00  6.7388652027568544e-04  3.1113046876906958e-04 0.0000000000000000e+00  7.3624849816103543e-04  3.2687789679121371e-04 0.0000000000000000e+00  1.0622870869572451e-04  1.8529300188778527e-05 0.0000000000000000e+00  8.7532636723308677e-04  4.3153369365417441e-04 0.0000000000000000e+00  6.2065025704022313e-04  3.1294390538978830e-04 0.0000000000000000e+00  5.9594753051078505e-05  3.8728175549059839e-05 0.0000000000000000e+00  8.5308130856185391e-04  6.3726250530219590e-04 0.0000000000000000e+00  8.1289873740195584e-04  5.0771557481894814e-04 0.0000000000000000e+00  7.0560095108308481e-04  6.6591678884894896e-04 0.0000000000000000e+00  7.8660137139914608e-04  7.5304769167212373e-04 0.0000000000000000e+00  8.2562618724389526e-05  3.1461169408930015e-04 0.0000000000000000e+00  1.5335744948038056e-04  9.4923493107841546e-05 0.0000000000000000e+00  8.5578473840298839e-05  1.8049994518762032e-04 0.0000000000000000e+00  5.2986166587535547e-04  5.3411708810919775e-04 0.0000000000000000e+00  4.1818278096777354e-04  3.8131118528893102e-04 0.0000000000000000e+00  3.9712433179476007e-04  5.6208179141806533e-05 0.0000000000000000e+00  1.5094319189148039e-04  2.9881358898831479e-05 0.0000000000000000e+00  3.0750089104114280e-05  7.3505104938485864e-04 0.0000000000000000e+00  3.9980422242771726e-05  7.1962695388604558e-04 0.0000000000000000e+00  6.6031459232980332e-04  3.6915461728503753e-05 0.0000000000000000e+00  3.0385315712630780e-05  1.3611141871122711e-04 0.0000000000000000e+00  3.9020016277840786e-05  3.3834537075839733e-04 0.0000000000000000e+00  4.2194450419760744e-05  3.6839304254525894e-04 0.0000000000000000e+00  6.1343415672041762e-04  1.2377857875653814e-04 0.0000000000000000e+00  8.1315049004214250e-05  5.5562166115959415e-04 0.0000000000000000e+00  7.7078442242806925e-04  2.1558073085307425e-05 0.0000000000000000e+00  3.7016416662256129e-05  8.1034825336347225e-04 0.0000000000000000e+00  2.7374035725037345e-04  8.6755573619924458e-04 0.0000000000000000e+00  2.9676370895742620e-04  8.0182062383571547e-04 0.0000000000000000e+00  7.0712483158162968e-04  4.0116229054956568e-04 0.0000000000000000e+00  6.8382603225888942e-05  9.9969255802848987e-05 0.0000000000000000e+00  2.0878594204747414e-04  3.2452510356326413e-04 0.0000000000000000e+00  3.4858899783898309e-04  4.7240419559445383e-04 0.0000000000000000e+00  1.9357493537753610e-04  6.4121306665806857e-04 0.0000000000000000e+00  2.8349018952914272e-04  6.5043211038872555e-04 0.0000000000000000e+00  2.7041780576232265e-04  4.3864235524412122e-04 0.0000000000000000e+00  2.1028654156315764e-04  5.5138813434788285e-04 0.0000000000000000e+00  2.8710701174452824e-05  4.3931006622852797e-04 0.0000000000000000e+00  2.7822705258340303e-05  3.4683877302935101e-04 0.0000000000000000e+00  3.3150225291120475e-05  3.0769239980971206e-04 0.0000000000000000e+00  8.4766119470565596e-05  2.5822361706054369e-04 0.0000000000000000e+00  6.2648406718476891e-05  8.4041829977533943e-04 0.0000000000000000e+00  7.2881111608084014e-04  9.2049538091745910e-05 0.0000000000000000e+00  4.7807306549157649e-04  5.5037345484886219e-05 0.0000000000000000e+00  4.5092496155509749e-04  1.5554885876529394e-04 0.0000000000000000e+00  6.9357678213897577e-04  1.3391299906310151e-04 0.0000000000000000e+00  4.4203909365122569e-04  2.2844705130541668e-04 0.0000000000000000e+00  2.7553826658776578e-04  1.9185040508639620e-04 0.0000000000000000e+00  3.8215890419831606e-04  5.0718930833454279e-05 0.0000000000000000e+00  3.5856680465451711e-04  1.0505662322038597e-04 0.0000000000000000e+00  2.3956279381218469e-05  5.5037462655482117e-05 0.0000000000000000e+00  3.7968400468439131e-05  1.1190866179047832e-05 0.0000000000000000e+00  6.6407895404013850e-05  6.8037347198473557e-05 0.0000000000000000e+00  1.0500843798259108e-04  5.8543694140478087e-05 0.0000000000000000e+00  1.4056793856347713e-04  3.8299976089965934e-05 0.0000000000000000e+00  5.4057025703106243e-04  8.6457770441567558e-04 0.0000000000000000e+00  5.2645022799988203e-04  7.9376269812138193e-04 0.0000000000000000e+00  2.4821607826721405e-04  5.4780058333512392e-05 0.0000000000000000e+00  2.0654482199189167e-04  4.3510603003551214e-05 0.0000000000000000e+00  2.2234208775447127e-04  9.8604700668468022e-05 0.0000000000000000e+00  2.0511504323337653e-04  6.6644153128293717e-05 0.0000000000000000e+00  4.3873011497446481e-04  3.4160332065404742e-04 0.0000000000000000e+00  4.2468738703527534e-04  2.8925244967434994e-04 0.0000000000000000e+00  5.6364673976381239e-04  1.5130032815683744e-04 0.0000000000000000e+00  4.3546780774849264e-04  1.9890509192896003e-04 0.0000000000000000e+00  4.8638253930958667e-04  6.7387691672825836e-05 0.0000000000000000e+00  4.1400269025388629e-04  3.6964046860881190e-05 0.0000000000000000e+00  2.2762000006850426e-05  7.0217899882131670e-04 0.0000000000000000e+00  3.5076465939560420e-05  7.0641909326042219e-04 0.0000000000000000e+00  8.0857863310149929e-04  2.5856314721803920e-05 0.0000000000000000e+00  7.7537881374864840e-04  5.7918714165361922e-05 0.0000000000000000e+00  6.0269782063920949e-04  2.3000914726580861e-05 0.0000000000000000e+00  5.7891804825553205e-04  1.2875601894830226e-05 0.0000000000000000e+00  4.7758019551928686e-05  5.8309985045107036e-04 0.0000000000000000e+00  9.4229445917497895e-05  4.2598481054022730e-04 0.0000000000000000e+00  7.9821733608180750e-04  8.9954810122062356e-05 0.0000000000000000e+00  6.6405013229553641e-04  4.3869249678297198e-04 0.0000000000000000e+00  5.6888115372580035e-04  5.0895218827630027e-04 0.0000000000000000e+00  2.4679799931465559e-04  6.9153956443900348e-04 0.0000000000000000e+00  2.4226799361087953e-04  8.0952377406121913e-04 0.0000000000000000e+00  7.4478989478202648e-05  3.1513332058048408e-04 0.0000000000000000e+00  1.4303095767373986e-04  3.7271812936562413e-04 0.0000000000000000e+00  2.5963803395656776e-05  2.8570482831749008e-04 0.0000000000000000e+00  4.4161105405047774e-05  2.8842530263340990e-04 0.0000000000000000e+00  7.4963945082727424e-04  2.4180386411539847e-04 0.0000000000000000e+00  8.0643195958292227e-04  2.9524532864258241e-04 0.0000000000000000e+00  1.9916351247249912e-04  7.5563779502263169e-04 0.0000000000000000e+00  1.9999418310600645e-04  4.4010448792705827e-04 0.0000000000000000e+00  3.1007083358343537e-04  3.4793854310684709e-04 0.0000000000000000e+00  3.5224689248045614e-04  3.2422033866355690e-04 0.0000000000000000e+00  3.2975504519376734e-04  6.9111103513390089e-04 0.0000000000000000e+00  2.9485472304213619e-04  6.7371713342501876e-04 0.0000000000000000e+00  1.5185231064931433e-04  6.7653382568358183e-04 0.0000000000000000e+00  1.8320374632805052e-04  7.5672253443116548e-04 0.0000000000000000e+00  3.9974801093919834e-04  3.7137379602385646e-04 0.0000000000000000e+00  2.5691702841279215e-04  3.9308806399753670e-04 0.0000000000000000e+00  4.5309470880327819e-04  5.2981111190931740e-05 0.0000000000000000e+00  4.9152374722448162e-04  8.0294723403694112e-05 0.0000000000000000e+00  4.7522295415481374e-05  6.9876366146119656e-05 0.0000000000000000e+00  3.6980594177446321e-05  4.8575484256572289e-05 0.0000000000000000e+00  2.1928267861915612e-05  1.0815016022976147e-04 0.0000000000000000e+00  3.8843755997046703e-05  7.2688237418312514e-05 0.0000000000000000e+00  4.5029245858908338e-05  2.6704491413455871e-04 0.0000000000000000e+00  6.1671629859288938e-05  1.6617882008903608e-04 0.0000000000000000e+00  8.0027313493610634e-04  4.0946100713907396e-04 0.0000000000000000e+00  6.2184633237175372e-04  3.6202478488909308e-04 0.0000000000000000e+00  4.0087413033349471e-04  6.9372531502189709e-04 0.0000000000000000e+00  4.4498001738670008e-04  8.1664893009438498e-04 0.0000000000000000e+00  6.3118108551989176e-05  4.7113013447766988e-04 0.0000000000000000e+00  7.3304529792632116e-05  4.0489121789674519e-04 0.0000000000000000e+00  2.2348719228005793e-05  1.9082324418032650e-04 0.0000000000000000e+00  1.7963757330681058e-05  1.1600926734246003e-04 0.0000000000000000e+00  2.9840443374242349e-05  1.5878398667567656e-04 0.0000000000000000e+00  1.0159362317101308e-04  2.6491875582223732e-04 0.0000000000000000e+00  1.2916058026299568e-04  2.0463024772333091e-04 0.0000000000000000e+00  2.3615023112089385e-04  5.4229576390564643e-05 0.0000000000000000e+00  2.2289470143347238e-04  1.3033489905198844e-04 0.0000000000000000e+00  1.5730479199954463e-04  2.1797250669453101e-04 0.0000000000000000e+00  1.4980556704979360e-04  1.2008158597328338e-04 0.0000000000000000e+00  2.7969658713195353e-04  1.6840948756359565e-04 0.0000000000000000e+00  2.5452081649637978e-04  2.6235520532952159e-04 0.0000000000000000e+00  7.3735431510761130e-04  1.9252927617039971e-04 0.0000000000000000e+00  6.0251827489866006e-04  2.2814646414028329e-04 0.0000000000000000e+00  5.5931570401165139e-04  5.5740597612031703e-04 0.0000000000000000e+00  5.2031669897522736e-04  5.8007485271001575e-04 0.0000000000000000e+00  4.5193333422547088e-04  3.0260004070771870e-04 0.0000000000000000e+00  3.5399858047476657e-04  2.1621303912544535e-04 0.0000000000000000e+00  6.3177310771773097e-05  2.0988471664443929e-04 0.0000000000000000e+00  6.6589924007842295e-05  1.4086224099676013e-04 0.0000000000000000e+00  1.4872827854253473e-04  7.1552094194516041e-04 0.0000000000000000e+00  1.0745180377785247e-04  8.8411362801617277e-04 0.0000000000000000e+00  7.4715714665353624e-04  9.2256948771741944e-04 0.0000000000000000e+00  7.0486837406862947e-04  8.2116656684672745e-04 0.0000000000000000e+00  2.3642318562472930e-04  2.7566681780263013e-04 0.0000000000000000e+00  2.0229116107529620e-04  3.4287033640590118e-04 0.0000000000000000e+00  4.3634419324019741e-04  7.6045633778314356e-05 0.0000000000000000e+00  2.8383990959608896e-04  8.9410020346422775e-05 0.0000000000000000e+00  8.2558819724813540e-04  7.9345011750974425e-04 0.0000000000000000e+00  7.7206366760193979e-04  7.9755331674938887e-04 0.0000000000000000e+00  4.3591115125367318e-05  1.1882301071252398e-04 0.0000000000000000e+00  3.1429044154532088e-05  1.3923780089093919e-04 0.0000000000000000e+00  2.4822311443059163e-04  8.5949162294701991e-04 0.0000000000000000e+00  3.5224737144899253e-04  8.6838178028835866e-04 0.0000000000000000e+00  4.1123213567423826e-04  8.0418468087674398e-04 0.0000000000000000e+00  3.5494994552149711e-04  8.4244218117703366e-04 0.0000000000000000e+00  5.1719089916158693e-04  2.5108445251796310e-05 0.0000000000000000e+00  1.6512027107301364e-04  6.3258444925758952e-05 0.0000000000000000e+00  1.7404405513743953e-04  6.2774329337447564e-05 0.0000000000000000e+00  4.3277573116770124e-04  3.6998768136330433e-04 0.0000000000000000e+00  4.2209049522183285e-04  4.1636000194135447e-04 0.0000000000000000e+00  9.8707229172493511e-05  3.6514141206126779e-04 0.0000000000000000e+00  8.1373483823607610e-05  3.6034166362417707e-04 0.0000000000000000e+00  4.6238676987981622e-04  2.1499857606804350e-05 0.0000000000000000e+00  4.6345349569422656e-04  3.2043214644281574e-05 0.0000000000000000e+00  3.9485479020840168e-04  5.2395215712416688e-05 0.0000000000000000e+00  3.8498021834946556e-04  5.3200455459850857e-05 0.0000000000000000e+00  2.2545574852929264e-04  5.4600980492507708e-04 0.0000000000000000e+00  2.1049104645674285e-04  4.1764466457748229e-04 0.0000000000000000e+00  1.7991240299718489e-04  4.1271097551583499e-04 0.0000000000000000e+00  2.0859345165288556e-04  4.6689455688952650e-04 0.0000000000000000e+00  4.0932377929462004e-05  5.5729396648543757e-05 0.0000000000000000e+00  4.2482687710683326e-05  1.2591533401788401e-04 0.0000000000000000e+00  3.2127447310275400e-04  2.9665293423250169e-04 0.0000000000000000e+00  3.5744148761253629e-04  3.0443451983491857e-04 0.0000000000000000e+00  1.6060138894304028e-04  1.7681208254536289e-04 0.0000000000000000e+00  6.4580029484991673e-05  2.0899558134646873e-04 0.0000000000000000e+00  1.7439033820626279e-04  1.9478551824319152e-05 0.0000000000000000e+00  2.4739694544735229e-04  5.5252875597350734e-05 0.0000000000000000e+00  2.5192284962126952e-04  3.9215859571093343e-05 0.0000000000000000e+00  2.0896711633068305e-04  4.8355935642797120e-05 0.0000000000000000e+00  1.4893108863562064e-04  6.0747825747353557e-05 0.0000000000000000e+00  2.0357119769641292e-04  4.5619342322495896e-05 0.0000000000000000e+00  1.7020073952447987e-04  3.0584619650269698e-05 0.0000000000000000e+00  8.3069015809388762e-04  4.4284812935382683e-04 0.0000000000000000e+00  8.3167843320994543e-04  5.1496631652878230e-04 0.0000000000000000e+00  7.6955059355702181e-04  4.3092051818868066e-04 0.0000000000000000e+00  7.9953696218696107e-04  8.0497283189815544e-04 0.0000000000000000e+00  5.0789916563471506e-04  8.8725342108253696e-04 0.0000000000000000e+00  2.8790825880494696e-05  5.2793360532944961e-04 0.0000000000000000e+00  2.8899511627782169e-05  5.4179507804410902e-04 0.0000000000000000e+00  6.5089289054977295e-04  7.2146662550568266e-05 0.0000000000000000e+00  8.0268357190429877e-04  6.0534278125254428e-05 0.0000000000000000e+00  3.2686419220914471e-04  1.9502686332694021e-04 0.0000000000000000e+00  1.9349757469744607e-04  1.4697370936438088e-04 0.0000000000000000e+00  6.1248966314167511e-05  3.4818042271250801e-05 0.0000000000000000e+00  3.8189206548707720e-05  5.6568455932110023e-05 0.0000000000000000e+00  6.5427161902151709e-04  6.7827240871577048e-04 0.0000000000000000e+00  7.4817990218515034e-04  6.8654603622509108e-04 0.0000000000000000e+00  1.4991401812297856e-04  1.1440577737995870e-04 0.0000000000000000e+00  2.0982298076119716e-04  1.0328795312978555e-04 0.0000000000000000e+00  1.0984254544953512e-04  4.9712424666553006e-04 0.0000000000000000e+00  1.2770318715668130e-04  3.5711732315254173e-04 0.0000000000000000e+00  6.2736430849250958e-04  7.6020976633917395e-05 0.0000000000000000e+00  7.0716030852859609e-04  1.0550401380452810e-04 0.0000000000000000e+00  7.2190287754499193e-04  3.8645353300452723e-05 0.0000000000000000e+00  5.3580972542328074e-04  3.2565076137139783e-05 0.0000000000000000e+00  4.5174702360602155e-04  1.4985998396219281e-05 0.0000000000000000e+00  4.7055978500997234e-04  2.1548447220473194e-04 0.0000000000000000e+00  5.3397137475013799e-04  1.1867741305827125e-04 0.0000000000000000e+00  8.1105471892710878e-04  6.9845046244272917e-04 0.0000000000000000e+00  2.6817852999778431e-04  6.5704107741865192e-04 0.0000000000000000e+00  2.4563553238246788e-04  5.1172045104675291e-04 0.0000000000000000e+00  7.9096696659281256e-04  1.5551562979760968e-04 0.0000000000000000e+00  7.2316932115845417e-04  1.8750106659983417e-04 0.0000000000000000e+00  9.5020852383759756e-04  5.4013032455984339e-06 0.0000000000000000e+00  1.9770942408532511e-05  8.2576047703044610e-04 0.0000000000000000e+00  7.8322965865426471e-06  9.4747126998313933e-04 0.0000000000000000e+00  3.9837693825986930e-05  1.8126552285363089e-04 0.0000000000000000e+00  2.3066978124433054e-05  2.7117680272208475e-04 0.0000000000000000e+00  2.3981144477182777e-05  1.9382741055589531e-04 0.0000000000000000e+00  3.1496392998388340e-05  1.4432021107708436e-04 0.0000000000000000e+00  7.3051201793494284e-05  2.1766553309502998e-04 0.0000000000000000e+00  6.2824487955100540e-05  3.1755232938481892e-04 0.0000000000000000e+00  9.0426048675201691e-05  5.4580974096375490e-05 0.0000000000000000e+00  8.1209048956328779e-05  2.2002698601019803e-05 0.0000000000000000e+00  5.5035905509600669e-05  5.5804774215993890e-05 0.0000000000000000e+00  7.4623047221398606e-05  3.1826275288149159e-05 0.0000000000000000e+00  4.7252683633782427e-04  4.6270368775498346e-04 0.0000000000000000e+00  5.4070579960016640e-04  4.4755236707261133e-04 0.0000000000000000e+00  2.6086572955577111e-05  -1.7072220403108639e-06 0.0000000000000000e+00  2.6866079182671328e-05  2.5919502008230557e-06 0.0000000000000000e+00  2.5927425034794023e-05  5.1002514967000178e-05 0.0000000000000000e+00  7.4089306481123760e-04  5.7634974017711359e-04 0.0000000000000000e+00  6.9003656485098824e-04  6.8001921747194380e-04 0.0000000000000000e+00  1.0046035232464794e-04  8.9944994851687634e-05 0.0000000000000000e+00  6.9732436598530050e-05  7.0324531292306698e-05 0.0000000000000000e+00  1.3463022698406474e-04  4.0335475906007798e-05 0.0000000000000000e+00  2.6568700797588657e-04  3.8098205389217691e-05 0.0000000000000000e+00  1.0664431019592819e-04  2.0159715538233433e-04 0.0000000000000000e+00  5.2721042146353972e-05  2.6512086158768470e-04 0.0000000000000000e+00  8.2691005785613957e-05  2.8452335010054780e-04 0.0000000000000000e+00  1.0955400400938035e-04  2.7648077792123140e-04 0.0000000000000000e+00  1.2691958071860455e-04  6.1704859387824696e-04 0.0000000000000000e+00  1.7093356560750420e-04  6.2416707628588800e-04 0.0000000000000000e+00  1.4517850734937707e-04  4.3594396708186424e-04 0.0000000000000000e+00  1.2340529186921460e-04  5.3432390934027047e-04 0.0000000000000000e+00  2.8586117844170254e-04  8.8311363784177889e-04 0.0000000000000000e+00  2.3783018167296413e-04  9.3201049822965040e-04 0.0000000000000000e+00  8.65