<?xml version="1.0"?>
<VTKFile type="UnstructuredGrid"  version="0.1"  >
<UnstructuredGrid>
<Piece  NumberOfPoints="1385" NumberOfCells="2640">
<Points>
<DataArray  type="Float64"  NumberOfComponents="3"  format="ascii">0 0 0  1 0 0  1 1 0  0 1 0  0.5 0 0  1 0.5 0  0.5 1 0  0 0.5 0  0.5 0.5 0  0 0.25 0  0.25 0 0  0.25 1 0  0 0.75 0  1 0.25 0  0.75 0 0  1 0.75 0  0.75 1 0  0.7083333333333333 0.2916666666666667 0  0.2916666666666666 0.7083333333333334 0  0.375 0.25 0  0.75 0.625 0  0.2569444444444444 0.4652777777777778 0  0.5366379310344828 0.7535919540229885 0  0.1875 0.1875 0  0.8125 0.8125 0  0.869047619047619 0.375 0  0.1450441919191919 0.6052714646464646 0  0.375 0.8690476190476191 0  0.5526960784313725 0.1825980392156862 0  0.8385416666666666 0.1614583333333334 0  0.1614583333333333 0.8385416666666667 0  0.6736111111111112 0.4652777777777778 0  0.1367521367521368 0.3477564102564102 0  0.6570970491253563 0.8648656830417855 0  0.5102479397556124 0.3386260301221938 0  0.3654513888888889 0.5737847222222222 0  0.6929750044954185 0.1362784921584263 0  0.388576102743835 0.411911725237599 0  0.6091269841269842 0.5942460317460317 0  0.875 0.6875 0  0.427278890279516 0.119889445139758 0  0.8544456845238095 0.5213913690476191 0  0.125 0 0  0 0.125 0  1 0.875 0  0.875 1 0  0.1280008648150532 0.4769292340226777 0  0.2695382451711197 0.3321750950221553 0  0.7031567235715964 0.7447810921428012 0  0.625 0 0  0.375 0 0  0.125 1 0  0.875 0 0  0 0.375 0  0 0.625 0  1 0.375 0  0.375 1 0  1 0.125 0  0 0.875 0  0.625 1 0  1 0.625 0  0.2979288363930608 0.1201429454643536 0  0.410919540229885 0.7484605911330049 0  0.5325041980395562 0.878905151526474 0  0.4831670727569156 0.6331060043826487 0  0.1735997378973042 0.7204747378973043 0  0.2534919507575758 0.5772372159090909 0  0.2633928571428572 0.8876488095238095 0  0.8199404761904761 0.2730654761904762 0  0.75830270586982 0.3919383189517417 0  0.5750282248382511 0.4237522353023667 0  0.6008360210023379 0.2794828358598495 0  0.08163442644334186 0.6821295860397322 0  0.08333333333333333 0.1875 0  0.2028380815996574 0.08844602719988583 0  0.2766521142611967 0.2325436572164097 0  0.90625 0.78125 0  0.890625 0.890625 0  0.7545696325008384 0.8973565441669461 0  0.5625 0.08086590340834317 0  0.09077380952380953 0.09077380952380952 0  0.4610923478694773 0.209034015149656 0  0.7542527598351648 0.5248380520595106 0  0.6459235536037465 0.3619913988405765 0  0.7560381768882634 0.20506142233852 0  0.07073252688172042 0.8125 0  0.0924753097241701 0.9078102849914793 0  0.9292674731182795 0.1875 0  0.9075246902758297 0.09218971500852073 0  0.8125 0.07073252688172045 0  0.2400955776842301 0.7869705776842302 0  0.9121050213379069 0.2781978201831695 0  0.7916878157143976 0.7239689078571988 0  0.9345238095238094 0.4375 0  0.4375 0.9345238095238095 0  0.3725616989755203 0.6651895248862173 0  0.06536271996350887 0.5625 0  0.9348362560379583 0.5625 0  0.456646798987055 0.8277247094351965 0  0.1875 0.9355758238725954 0  0.6169761231634859 0.6939779188977889 0  0.6226854751147515 0.7827911461419014 0  0.3305695598137626 0.7901697871282585 0  0.5865305325818898 0.5101085479043448 0  0.6622701297028378 0.2177663989757395 0  0.1354166666666667 0.2591702279202279 0  0 0.3125 0  0.2094429575680048 0.3936361846162499 0  0.836666296419157 0.607917407161686 0  0.6875 1 0  0.214261555450504 0.6492551722020035 0  0 0.4375 0  0.07731537126068377 0.40625 0  0.3427725432967068 0.4879566233699599 0  0.3550792513951871 0.3331953632609953 0  0.4462473953896857 0.2887834789342508 0  0.4747801464819794 0.417386052030127 0  0.8229836475148948 0.4443292349237342 0  0.7322605135514757 0.8199240278289671 0  0.6756431877205955 0.5468989748126787 0  0.1968419507215863 0.5194573482612496 0  0.3285590277777778 0.9345238095238095 0  0.8125 1 0  0.4198917601920009 0.5134893045331258 0  0.5232405503206691 0.2595791787880157 0  1 0.9375 0  0.1987510870015086 0.3025185951894431 0  0.5625 1 0  0.6005390654136388 0.9228110509230952 0  0.6411254848194414 0.07704872765442942 0  0.3357233162523242 0.1855113224530532 0  0.6730653396610877 0.6393887462324165 0  0.310966987234063 0.6240019765311626 0  0.7368737836204349 0.07457755202327881 0  0.6192316414418171 0.1485238406378594 0  0.5432429670607106 0.678552703844006 0  0.4754371679695679 0.7103946803120881 0  0.07501324890749672 0.3043839897335739 0  0.5358146975860403 0.5688321463205916 0  0.3115271739500156 0.3982137365971444 0  0.3625191397122174 0.0767854603650549 0  0.5024029442563831 0.1264128223758444 0  0.4375 0 0  0.4699946908887376 0.06379961173775725 0  0.9375 0.71875 0  0.9272105898044465 0.635671179608893 0  0.9375 1 0  0.6690971819568612 0.9331530898202766 0  0.1073454944778885 0.7499206387638554 0  0.8699082999280406 0.2232403652524313 0  0.5773118091863964 0.3548027349159383 0  0.1354166666666667 0.1428571428571428 0  0.3125 0 0  0.8241684193077341 0.9257452995055244 0  0.4352314948354036 0.3586940847489378 0  0.4351301473778832 0.5819726043539077 0  0.8073232928518163 0.3419398170341962 0  0.7775949246947366 0.1298519409204575 0  0.6875 0 0  0.7413513991851041 0.457933324954483 0  0.939453125 0.841796875 0  0.5630355154606987 0.8171875156478349 0  0.9345238095238095 0.3461466592368577 0  0.9375 0 0  1 0.0625 0  0.0625 1 0  0 0.9375 0  0.06552178593177167 0.4969053669623468 0  0.1424866619031703 0.4130277709291224 0  0.1275287182444726 0.5422946908002588 0  0.2637686595586339 0.06413888464529549 0  0.2524263535491086 0.1697437503243817 0  0.7367218397988525 0.6888573970660841 0  0.0625 0 0  0 0.0625 0  0.8463594539285995 0.7578283617857982 0  0.3128751192101563 0.2851997374369947 0  0.4015281788351144 0.1806421385113692 0  0.1910251795116588 0.4553332197174453 0  0.287797471442006 0.5222621440543902 0  0.3962628745986055 0.8097380085535307 0  0.3505895299554843 0.7304878890838692 0  0.5019151500495276 0.9356042615328103 0  0.9374389419410134 0.4999931039076005 0  0.3125 1 0  0.1875 1 0  1 0.5625 0  0.4375 1 0  1 0.3125 0  1 0.4375 0  0.8125 0 0  1 0.1875 0  0.5625 0 0  0.1875 0 0  0 0.1875 0  0 0.5625 0  0 0.6875 0  0 0.8125 0  1 0.6875 0  1 0.8125 0  0.8021696218581627 0.6612893947866073 0  0.06154922295426143 0.6239401126946708 0  0.9359375 0.9359375 0  0.4666158024849896 0.7691515918155014 0  0.2318201265217025 0.7064974250277525 0  0.1565954253579966 0.6635489312486841 0  0.1598132503680848 0.7787147500325552 0  0.3146529991605639 0.8510876378205265 0  0.1461873209418733 0.05982804528877814 0  0.06109554988524315 0.2446551776247686 0  0.8054950308560754 0.5564226538848541 0  0.470541749491976 0.8853316336952531 0  0.6948472567465137 0.4042308563372457 0  0.8802828472348889 0.4658893256343853 0  0.6788075634946739 0.7974194205806069 0  0.2155048659603867 0.2428201584940968 0  0.8131223143423806 0.2132171049028394 0  0.4330798005432235 0.6671274900735726 0  0.6015279126162613 0.2187368078743274 0  0.8061636571464289 0.8703766630361714 0  0.7008230445061776 0.3478568388444072 0  0.8638466246958771 0.3147095987735538 0  0.204801534004265 0.8789209409594009 0  0.2449006736431132 0.9424182882803838 0  0.7611268409371427 0.2643056884799992 0  0.7552800864046191 0.7678006649959446 0  0.5983639638906616 0.864113435029236 0  0.1956559506814437 0.577281203577426 0  0.3527670268164207 0.1320469097565204 0  0.7530364577483248 0.3262386077083089 0  0.4535919187979363 0.4690107087451527 0  0.8824869791666666 0.8336588541666666 0  0.8814453125 0.9451171875 0  0.5582987942628019 0.622421666543858 0  0.6817532446064828 0.6939001801354731 0  0.3830295138888889 0.9450968952922078 0  0.4140603937012541 0.05211333372716105 0  0.5535864501303013 0.3060591985391672 0  0.6560130086346878 0.2729726562211558 0  0.890203140221684 0.5948314305427268 0  0.7043857725999024 0.593980890020804 0  0.5105843922695152 0.8016828014338627 0  0.05365910753708378 0.7315110031682004 0  0.616904573672261 0.4621186633436136 0  0.5338511646455415 0.387875898899613 0  0.5231769258947843 0.4477682463140762 0  0.650302973237622 0.7370722302085519 0  0.3927483139621257 0.4662414504529014 0  0.8034595960585199 0.4972538342758211 0  0.7738337841682438 0.9496376207663251 0  0.7193737507158268 0.954685447650112 0  0.482525916480686 0.5528257169991676 0  0.2533501157346781 0.2809495420003238 0  0.3118487924482243 0.5702930126570319 0  0.6257598847669529 0.4104163315430518 0  0.1354166666666667 0.1955605158730158 0  0.04166666666666666 0.15625 0  0.3956448985530264 0.6174149462065157 0  0.8102897701818546 0.3938784238208349 0  0.2641154190013625 0.8344469561943118 0  0.642852220770013 0.5068794586563659 0  0.05271458179508221 0.355846947336007 0  0.7021551360070266 0.8921457280225779 0  0.5692125776683765 0.1328512638850284 0  0.5206162811937602 0.04865158770992991 0  0.6001838442201555 0.04540556991297563 0  0.2597716608242787 0.4118346398477178 0  0.4040584599473195 0.3179589136784675 0  0.1480337679295207 0.8941560631483065 0  0.1344356707112281 0.9466251177415842 0  0.7114696411829317 0.4983917389078826 0  0.7585704698442475 0.5751926345944629 0  0.2189131956390871 0.04022068508159698 0  0.2476935455192043 0.1123642267635843 0  0.185995005654517 0.1365524537205238 0  0.6223414373308711 0.643380839165121 0  0.5732602596637543 0.7190051747306219 0  0.268358222364537 0.6586246524467934 0  0.3265879848129173 0.2369791782191225 0  0.1267095595787346 0.7034787238999181 0  0.1115202922226038 0.6421997933884982 0  0.3128688392940203 0.07260997451790079 0  0.550724900485678 0.9253360991633187 0  0.7142608810459105 0.2384904702214873 0  0.7045869185243887 0.1871826897887429 0  0.890625 0.734375 0  0.953125 0.765625 0  0.2111812642821677 0.8286209446459138 0  0.9590293078204457 0.09375 0  0.953431269039847 0.1435719386408004 0  0.04097069217955424 0.90625 0  0.04656873096015299 0.8564280613591996 0  0.1078743037981226 0.8541621766048062 0  0.8921256962018773 0.1458378233951939 0  0.8521576979194619 0.1084496634207678 0  0.8655663982740958 0.05464346096571447 0  0.04005659640905543 0.09375 0  0.1001448316533417 0.04246776244228261 
[...]
<CellData  Vectors="f_8394-1"> 
<DataArray  type="Float64"  Name="f_8394-1"  NumberOfComponents="3" format="ascii">4.3369207926080295e-05  4.1403321166885102e-05 0.0000000000000000e+00  2.6873949483844120e-05  2.4391140607936956e-05 0.0000000000000000e+00  1.6428056648017131e-05  2.4139777155844063e-05 0.0000000000000000e+00  1.4134008882320895e-05  2.2348457038961666e-05 0.0000000000000000e+00  2.9560756826840677e-05  4.5391248148308738e-05 0.0000000000000000e+00  2.7838481697137415e-05  3.6036255859913360e-05 0.0000000000000000e+00  3.2253938452817678e-05  8.9960781839566503e-05 0.0000000000000000e+00  1.1343713047578222e-05  1.4046364968648206e-04 0.0000000000000000e+00  1.1708525589095602e-04  1.9349692443646693e-05 0.0000000000000000e+00  5.5854185588869133e-05  8.7722486325157919e-07 0.0000000000000000e+00  3.1046567706896250e-05  2.2889467616791267e-05 0.0000000000000000e+00  7.9217812952114057e-05  9.5982244450956307e-05 0.0000000000000000e+00  6.3098901233776000e-05  1.1981416581035572e-04 0.0000000000000000e+00  9.5912500599441795e-05  6.8232613570577870e-05 0.0000000000000000e+00  1.2000891114634970e-04  5.3843185698063208e-05 0.0000000000000000e+00  1.0659439008952754e-04  4.3980428205302768e-05 0.0000000000000000e+00  7.0879555402710893e-05  7.8157870967789146e-05 0.0000000000000000e+00  3.7530576242547055e-05  4.8698351402814000e-05 0.0000000000000000e+00  2.5454615034510785e-05  9.6309296063892100e-05 0.0000000000000000e+00  5.5230673093470044e-05  3.1724998414428643e-05 0.0000000000000000e+00  5.5903037544636003e-05  2.5656580022008948e-05 0.0000000000000000e+00  9.6648161943653231e-05  3.9007468558254650e-05 0.0000000000000000e+00  1.0844295749682021e-04  3.4099917748718485e-05 0.0000000000000000e+00  1.7479509611878250e-05  9.6147140490285854e-05 0.0000000000000000e+00  1.9326424947208523e-05  5.7554544834566743e-05 0.0000000000000000e+00  2.6328036736150247e-05  1.2179955676425238e-04 0.0000000000000000e+00  8.0982642879813882e-06  4.2905779778853172e-05 0.0000000000000000e+00  9.6276809229370536e-05  2.3736123495591281e-05 0.0000000000000000e+00  8.7147627355990979e-06  1.3846996838098600e-04 0.0000000000000000e+00  4.9926815511834389e-05  9.1553635280161829e-06 0.0000000000000000e+00  1.2276603253468196e-04  2.2336431448890315e-05 0.0000000000000000e+00  4.2028338529581847e-05  6.7044760678154299e-05 0.0000000000000000e+00  4.0071634399367623e-05  3.2060905110740840e-05 0.0000000000000000e+00  6.8039892274940922e-05  1.0852673057834157e-04 0.0000000000000000e+00  4.0046779014170536e-05  1.1409733006677254e-05 0.0000000000000000e+00  6.3202552545645532e-05  2.9999762591439918e-05 0.0000000000000000e+00  4.8116780745080489e-05  6.3194243063605964e-05 0.0000000000000000e+00  2.8003660942122131e-05  9.8655821692337080e-05 0.0000000000000000e+00  6.6296478356229970e-05  2.8969340239184818e-05 0.0000000000000000e+00  4.3401780915087498e-05  3.1111347065381040e-05 0.0000000000000000e+00  4.3832445972663214e-05  2.8220753988196711e-05 0.0000000000000000e+00  5.6721074614372191e-05  4.0702068925196962e-05 0.0000000000000000e+00  1.0969481269052890e-04  5.0344983932781677e-05 0.0000000000000000e+00  1.2031639226894643e-04  5.1427375541313840e-05 0.0000000000000000e+00  2.5533960853918018e-05  1.4942090479833194e-05 0.0000000000000000e+00  1.3877006506751114e-04  6.7553469880077849e-05 0.0000000000000000e+00  1.0396933333320374e-04  4.9140907172062866e-05 0.0000000000000000e+00  2.2341616914053894e-05  3.7594912243620419e-05 0.0000000000000000e+00  1.3091174631934849e-04  9.5048400749484435e-05 0.0000000000000000e+00  1.2695863132986595e-04  7.8053981016905317e-05 0.0000000000000000e+00  1.0592394584619462e-04  1.0320353488984666e-04 0.0000000000000000e+00  1.1624925249620587e-04  1.1536456023963348e-04 0.0000000000000000e+00  3.4972647565653325e-05  6.7089466782891115e-05 0.0000000000000000e+00  6.5350271626019125e-05  2.7072805841456868e-05 0.0000000000000000e+00  2.9455106340225750e-05  3.7070135407502677e-05 0.0000000000000000e+00  8.2916071502744742e-05  8.4680750001564755e-05 0.0000000000000000e+00  6.9259826051825665e-05  6.2359764534821902e-05 0.0000000000000000e+00  6.2681508280713991e-05  4.6094021243775798e-05 0.0000000000000000e+00  3.5797448537154300e-05  1.3563361942346542e-05 0.0000000000000000e+00  1.9957192575043465e-05  1.3069418802795537e-04 0.0000000000000000e+00  8.3120778508065654e-06  1.2285598239129291e-04 0.0000000000000000e+00  1.0926459489444278e-04  3.5451139762364852e-05 0.0000000000000000e+00  3.0423561582720173e-05  4.0799609297992079e-05 0.0000000000000000e+00  2.2827995416563206e-05  6.4272242930420650e-05 0.0000000000000000e+00  4.2236095680087930e-05  6.7330127452078467e-05 0.0000000000000000e+00  9.9143265271853091e-05  2.0248698257083586e-05 0.0000000000000000e+00  2.2872060222889606e-05  1.0002631046845371e-04 0.0000000000000000e+00  1.2986486341983310e-04  1.8114953709304905e-05 0.0000000000000000e+00  9.7947248523063104e-06  1.3395561132368661e-04 0.0000000000000000e+00  4.2855511900164905e-05  1.3975859748516502e-04 0.0000000000000000e+00  4.7445215602524445e-05  1.3053594441144573e-04 0.0000000000000000e+00  1.1413811525299844e-04  6.2522231834573751e-05 0.0000000000000000e+00  4.4516857121356318e-05  2.5584317700648237e-05 0.0000000000000000e+00  3.0436865481070252e-05  6.2883512020243804e-05 0.0000000000000000e+00  5.5607856045664827e-05  8.2639331588801304e-05 0.0000000000000000e+00  3.3927812108204031e-05  1.0959256584840730e-04 0.0000000000000000e+00  4.5704135293366084e-05  1.0581153604283800e-04 0.0000000000000000e+00  5.0740451141796926e-05  7.9915612340105335e-05 0.0000000000000000e+00  3.9871003451480528e-05  1.0059142947172081e-04 0.0000000000000000e+00  2.2608314511092891e-05  6.3926983321642506e-05 0.0000000000000000e+00  1.9619655832770107e-05  5.0668001237884358e-05 0.0000000000000000e+00  1.5089888278074872e-05  5.1296166140643870e-05 0.0000000000000000e+00  2.2558408836600797e-05  5.2402473978638223e-05 0.0000000000000000e+00  9.3815626230160188e-06  1.4330864208791352e-04 0.0000000000000000e+00  1.2889147857537446e-04  2.1090675153685393e-05 0.0000000000000000e+00  7.5876993605149658e-05  2.3431237568523505e-05 0.0000000000000000e+00  8.3440107165001645e-05  3.4115182644034372e-05 0.0000000000000000e+00  1.1962597412185967e-04  1.9983518967834627e-05 0.0000000000000000e+00  8.7325232491825320e-05  4.5366282925607746e-05 0.0000000000000000e+00  5.4698892427778110e-05  4.6055073384629942e-05 0.0000000000000000e+00  8.9154069948675264e-05  2.5311311205031605e-05 0.0000000000000000e+00  6.6917976812387429e-05  2.7695541741512427e-05 0.0000000000000000e+00  2.3615878672440285e-05  7.6928059714544916e-06 0.0000000000000000e+00  1.4783616710469260e-05  5.4618404094653335e-07 0.0000000000000000e+00  2.8898405417333910e-05  3.0818913891252342e-05 0.0000000000000000e+00  3.6260294503470989e-05  3.6227088728544657e-05 0.0000000000000000e+00  3.6519584661824685e-05  2.0999234911916481e-05 0.0000000000000000e+00  8.4385450527171951e-05  1.3391350135326545e-04 0.0000000000000000e+00  8.1032096074782888e-05  1.2232297774179864e-04 0.0000000000000000e+00  4.4228259053179580e-05  4.8475864251660227e-05 0.0000000000000000e+00  2.5590666358663714e-05  3.9693483911500187e-05 0.0000000000000000e+00  3.5501477972435270e-05  3.8400960245194237e-05 0.0000000000000000e+00  5.4615930155423352e-05  2.6095808825816449e-05 0.0000000000000000e+00  7.5113734866303901e-05  5.9802393133585006e-05 0.0000000000000000e+00  7.6538742690591025e-05  4.7842649227119256e-05 0.0000000000000000e+00  9.2517113869771544e-05  2.1948855958005762e-05 0.0000000000000000e+00  8.0460997720322781e-05  4.0280596405167420e-05 0.0000000000000000e+00  8.0481164459142299e-05  2.9938999816566337e-05 0.0000000000000000e+00  6.4876223596931613e-05  2.0029507100560667e-05 0.0000000000000000e+00  1.8355904588204431e-05  1.1283938345305283e-04 0.0000000000000000e+00  2.2735190855229764e-05  1.2161945861790562e-04 0.0000000000000000e+00  1.4028145383297868e-04  1.0543336011767030e-05 0.0000000000000000e+00  1.3680559016335868e-04  1.9205983886993382e-05 0.0000000000000000e+00  1.0065032197629597e-04  1.8708318241482806e-05 0.0000000000000000e+00  9.9382136012609573e-05  1.0509730359154935e-05 0.0000000000000000e+00  2.3608728360580302e-05  9.3731695131496595e-05 0.0000000000000000e+00  2.8584103914966326e-05  7.7023989830028364e-05 0.0000000000000000e+00  1.4027764626763846e-04  2.0477233382012508e-05 0.0000000000000000e+00  1.0531412624879578e-04  6.8125186690144398e-05 0.0000000000000000e+00  9.0609799387121262e-05  7.8513024458096584e-05 0.0000000000000000e+00  3.9905432979267950e-05  1.1773928979331217e-04 0.0000000000000000e+00  3.9241820970145401e-05  1.3272004888005204e-04 0.0000000000000000e+00  3.0086106257909206e-05  4.3238240487489977e-05 0.0000000000000000e+00  3.3832406304481973e-05  6.0478476468626956e-05 0.0000000000000000e+00  2.4026549119664622e-05  4.7375690505523873e-05 0.0000000000000000e+00  3.6839213144251012e-05  6.2322082829445902e-05 0.0000000000000000e+00  1.2273131474963255e-04  3.8227845709200239e-05 0.0000000000000000e+00  1.3026586532336552e-04  4.6471174774827690e-05 0.0000000000000000e+00  3.4202075337564843e-05  1.2885506281065608e-04 0.0000000000000000e+00  3.6463982912424771e-05  7.4012983323583009e-05 0.0000000000000000e+00  5.2195525315789618e-05  5.8415446132526764e-05 0.0000000000000000e+00  6.3441621014779522e-05  5.0286087320659620e-05 0.0000000000000000e+00  5.2292011221270414e-05  1.1190538708567950e-04 0.0000000000000000e+00  4.7735548441044725e-05  1.1225426793979329e-04 0.0000000000000000e+00  2.6609819195807782e-05  1.2016567121639196e-04 0.0000000000000000e+00  3.0062401607541369e-05  1.2883753761335544e-04 0.0000000000000000e+00  6.4399118860792063e-05  6.1047902543955249e-05 0.0000000000000000e+00  5.1066192430386257e-05  7.5415107258921345e-05 0.0000000000000000e+00  7.3218060669635578e-05  2.8197943144800354e-05 0.0000000000000000e+00  8.2844373276679147e-05  2.1202521909444547e-05 0.0000000000000000e+00  1.5798040415786979e-05  3.0108235074948819e-05 0.0000000000000000e+00  2.4445268246607571e-05  5.2076708998856989e-06 0.0000000000000000e+00  1.8567490369312624e-05  1.6455901594333395e-05 0.0000000000000000e+00  3.8794891772803424e-05  5.0799358548877533e-06 0.0000000000000000e+00  2.8428702313191428e-05  5.0734416343075066e-05 0.0000000000000000e+00  2.5374075682264161e-05  3.3834711640850640e-05 0.0000000000000000e+00  1.2776348739811943e-04  6.4401926910862513e-05 0.0000000000000000e+00  1.0214808606310633e-04  5.8016824903558379e-05 0.0000000000000000e+00  6.3363292355691220e-05  1.1107168207270155e-04 0.0000000000000000e+00  6.9607296379234929e-05  1.2908337967022009e-04 0.0000000000000000e+00  1.6219473003399244e-05  8.9375887597362488e-05 0.0000000000000000e+00  3.5501851574090572e-05  7.5945376448974158e-05 0.0000000000000000e+00  2.2302926482979942e-05  2.0807070981373542e-05 0.0000000000000000e+00  1.6412319527805102e-05  1.9446726402155071e-05 0.0000000000000000e+00  1.7858400629696797e-05  3.3190178679936548e-05 0.0000000000000000e+00  2.7495356882809732e-05  4.5002992875237065e-05 0.0000000000000000e+00  3.3984782744658368e-05  4.5963251590280226e-05 0.0000000000000000e+00  4.2495996803630617e-05  1.2445133076262749e-05 0.0000000000000000e+00  5.6050729447239821e-05  4.1355359203889906e-05 0.0000000000000000e+00  4.5470853616768779e-05  5.4028785112265936e-05 0.0000000000000000e+00  3.0098484445854504e-05  3.7824183558283613e-05 0.0000000000000000e+00  5.5848489534951263e-05  3.6028787566488033e-05 0.0000000000000000e+00  4.6546372969910054e-05  5.0204368717633468e-05 0.0000000000000000e+00  1.2712166224855835e-04  3.0453855225462224e-05 0.0000000000000000e+00  1.0564609871731565e-04  4.1539009185094332e-05 0.0000000000000000e+00  8.6593477607434683e-05  8.7205861135927176e-05 0.0000000000000000e+00  8.1866295054609439e-05  8.9929870974122901e-05 0.0000000000000000e+00  7.5773245705530162e-05  5.1221966526924836e-05 0.0000000000000000e+00  6.5854459197811825e-05  4.3624670231527898e-05 0.0000000000000000e+00  4.8473611938025326e-05  4.6092136534153638e-05 0.0000000000000000e+00  2.8067564820131049e-05  2.8863262614718960e-05 0.0000000000000000e+00  2.8908762168817410e-05  1.2216700008273055e-04 0.0000000000000000e+00  1.9035610554656661e-05  1.4949043809483247e-04 0.0000000000000000e+00  1.1435966445838748e-04  1.3651030463924233e-04 0.0000000000000000e+00  1.0601933333750434e-04  1.2255281680534328e-04 0.0000000000000000e+00  4.2759276565555689e-05  4.5810888488823323e-05 0.0000000000000000e+00  3.1915541770400367e-05  6.5815153364799056e-05 0.0000000000000000e+00  7.2821606741151881e-05  2.0393273438802023e-05 0.0000000000000000e+00  6.6730375444391864e-05  3.1780243609267494e-05 0.0000000000000000e+00  1.2473598243769080e-04  1.1692458889718984e-04 0.0000000000000000e+00  1.1430639259861146e-04  1.2233959944450980e-04 0.0000000000000000e+00  1.7002502639708763e-05  3.1164406070219152e-05 0.0000000000000000e+00  1.6451365186927683e-05  3.4280173935876075e-05 0.0000000000000000e+00  3.9675445277216353e-05  1.3924079250634500e-04 0.0000000000000000e+00  5.5661433355530545e-05  1.3824264721845121e-04 0.0000000000000000e+00  6.4896289142006043e-05  1.2775099515108503e-04 0.0000000000000000e+00  5.6086358508330896e-05  1.3446534060838029e-04 0.0000000000000000e+00  8.7837633097740661e-05  1.3572252295310408e-05 0.0000000000000000e+00  4.9475117202393498e-05  3.9024021934195817e-05 0.0000000000000000e+00  5.3385234784455276e-05  4.3130111260766844e-05 0.0000000000000000e+00  7.1741366794794871e-05  5.9343591361060595e-05 0.0000000000000000e+00  6.5244513655230912e-05  6.7678166924221432e-05 0.0000000000000000e+00  3.3156902288430080e-05  5.7876240296150917e-05 0.0000000000000000e+00  2.5431624262224095e-05  5.4340034670500613e-05 0.0000000000000000e+00  7.0111789256533318e-05  2.1302267459142822e-05 0.0000000000000000e+00  6.9070006066821607e-05  2.6216869337445114e-05 0.0000000000000000e+00  7.5965861654334982e-05  4.1658631611388055e-05 0.0000000000000000e+00  6.0488327881522478e-05  2.7659747374703727e-05 0.0000000000000000e+00  4.1471277445536207e-05  9.3212381608458701e-05 0.0000000000000000e+00  3.3652906419630823e-05  7.7957084679096972e-05 0.0000000000000000e+00  3.5877790230843221e-05  7.6594707049518847e-05 0.0000000000000000e+00  3.4606367698389410e-05  8.4969695114125052e-05 0.0000000000000000e+00  3.7350975348277424e-05  1.6572948921076837e-05 0.0000000000000000e+00  2.5840064112337238e-05  2.9063283069762962e-05 0.0000000000000000e+00  5.1188969506760706e-05  5.8596451746360743e-05 0.0000000000000000e+00  6.2859030604475459e-05  6.1585876198153231e-05 0.0000000000000000e+00  4.1718236090950408e-05  3.1086792245257719e-05 0.0000000000000000e+00  1.0369995940346061e-05  4.6887048134575339e-05 0.0000000000000000e+00  2.4435424703385499e-05  1.9160343223926107e-05 0.0000000000000000e+00  5.8129295442571454e-05  4.8198562882263594e-05 0.0000000000000000e+00  6.7902294568368844e-05  2.8941311628818205e-05 0.0000000000000000e+00  4.1643294879976537e-05  4.4731626203109869e-05 0.0000000000000000e+00  4.0379832455630383e-05  5.5188010686504383e-05 0.0000000000000000e+00  4.0394494825323348e-05  4.5124250881658320e-05 0.0000000000000000e+00  2.7909651123379318e-05  3.0599894929989099e-05 0.0000000000000000e+00  1.3200867506101162e-04  6.9718916829912092e-05 0.0000000000000000e+00  1.3032535693817388e-04  7.9266338986928192e-05 0.0000000000000000e+00  1.2219069488124152e-04  6.7325973648554112e-05 0.0000000000000000e+00  1.1746227442212156e-04  1.1988561592611201e-04 0.0000000000000000e+00  7.9436536842011712e-05  1.3855885221675203e-04 0.0000000000000000e+00  2.4088547194367814e-05  9.3983157747002457e-05 0.0000000000000000e+00  2.3876246311651969e-05  7.5356595633010702e-05 0.0000000000000000e+00  1.0341187808159359e-04  2.2091897388942746e-05 0.0000000000000000e+00  1.4058866082496319e-04  9.4540745881973582e-06 0.0000000000000000e+00  6.5333193089820696e-05  4.0260389781126630e-05 0.0000000000000000e+00  4.0070046233328520e-05  3.5145174237896236e-05 0.0000000000000000e+00  4.0953821479045716e-05  2.6415069583592496e-05 0.0000000000000000e+00  3.7523358272516912e-05  2.6221195826731060e-05 0.0000000000000000e+00  1.0017618404878734e-04  1.0453324865254221e-04 0.0000000000000000e+00  1.1156666635343007e-04  1.0320148884245962e-04 0.0000000000000000e+00  2.8496039178116995e-05  3.9249150464609755e-05 0.0000000000000000e+00  6.5235095404589402e-05  3.7448336223107235e-05 0.0000000000000000e+00  1.2356712416901229e-05  8.8244171962446348e-05 0.0000000000000000e+00  2.1579496759291255e-05  7.3002387789299292e-05 0.0000000000000000e+00  1.1308313516088613e-04  2.0809425201765595e-05 0.0000000000000000e+00  1.2164817145025574e-04  1.7356334643360871e-05 0.0000000000000000e+00  1.2967746447387931e-04  1.7590776473744503e-05 0.0000000000000000e+00  9.1563764035378493e-05  3.6005042602057251e-06 0.0000000000000000e+00  7.6940905236042394e-05  1.4998430897843522e-05 0.0000000000000000e+00  7.2787205746192157e-05  4.2970619783829148e-05 0.0000000000000000e+00  9.1405036481039662e-05  2.3141386298508061e-05 0.0000000000000000e+00  1.2368162866046434e-04  1.0537520523609379e-04 0.0000000000000000e+00  4.5619011051376744e-05  1.0829142897543225e-04 0.0000000000000000e+00  4.7294366454143402e-05  9.1342242470294555e-05 0.0000000000000000e+00  1.3115792852548436e-04  2.5222006055095349e-05 0.0000000000000000e+00  1.2781242856770475e-04  3.8311817922361947e-05 0.0000000000000000e+00  1.6658062458511818e-04  3.6288478299975084e-06 0.0000000000000000e+00  1.9209175803131752e-05  1.4202994239901007e-04 0.0000000000000000e+00  2.9377195127107944e-06  1.5785274159821840e-04 0.0000000000000000e+00  3.9004911792642637e-05  4.5789369978055955e-05 0.0000000000000000e+00  2.1161098556191145e-05  5.7268835514078545e-05 0.0000000000000000e+00  2.3321962642279233e-05  1.5948141316486342e-05 0.0000000000000000e+00  2.3865576193493681e-05  3.1696919040665784e-05 0.0000000000000000e+00  3.9671791270846507e-05  2.8320027130683049e-05 0.0000000000000000e+00  2.6776119281705846e-05  6.9017716129738429e-05 0.0000000000000000e+00  2.0087613092139379e-05  5.4690679464047106e-05 0.0000000000000000e+00  8.7851031308539897e-06  2.1622743144637313e-05 0.0000000000000000e+00  1.7577316510316628e-05  4.2211845015038207e-05 0.0000000000000000e+00  1.7567053710053223e-05  1.1394733095543014e-05 0.0000000000000000e+00  7.7364566932708393e-05  7.2355224700684445e-05 0.0000000000000000e+00  8.5387790473243286e-05  7.1639866543347721e-05 0.0000000000000000e+00  2.6145392496175035e-05  -3.9484521596514219e-06 0.0000000000000000e+00  2.6861198014127660e-05  -1.9808284782240003e-06 0.0000000000000000e+00  2.4594089947213711e-05  5.1038754507657810e-05 0.0000000000000000e+00  1.1381527110428128e-04  8.7409396732143573e-05 0.0000000000000000e+00  1.0458005104183343e-04  1.0211249375952024e-04 0.0000000000000000e+00  3.3106292405059521e-05  2.6767355691658012e-05 0.0000000000000000e+00  1.6540816322565897e-05  2.4335168451852846e-05 0.0000000000000000e+00  3.3360515564392155e-05  2.5741003141492176e-05 0.0000000000000000e+00  5.6092881599656095e-05  1.7019075277330838e-05 0.0000000000000000e+00  2.6025376282154140e-05  4.5575841932596770e-05 0.0000000000000000e+00  1.1695755316002212e-05  4.3270600793475846e-05 0.0000000000000000e+00  3.6578748210800006e-05  5.6699595412861478e-05 0.0000000000000000e+00  2.6511500871607665e-05  5.3183526343495341e-05 0.0000000000000000e+00  3.1109428451010493e-05  1.0347178581767720e-04 0.0000000000000000e+00  3.1729716543819329e-05  1.0566087055644483e-04 0.0000000000000000e+00  2.8913346661480970e-05  7.0377273322413483e-05 0.0000000000000000e+00  2.8968140532125438e-05  8.8857540375758849e-05 0.0000000000000000e+00  4.5146701096215931e-05  1.4165555342488483e-04 0.0000000000000000e+00  3.7903312082206655e-05  1.4932604557758324e-04 0.0000000000000000e+00  1.4