<?xml version="1.0"?>
<VTKFile type="UnstructuredGrid"  version="0.1"  >
<UnstructuredGrid>
<Piece  NumberOfPoints="1385" NumberOfCells="2640">
<Points>
<DataArray  type="Float64"  NumberOfComponents="3"  format="ascii">0 0 0  1 0 0  1 1 0  0 1 0  0.5 0 0  1 0.5 0  0.5 1 0  0 0.5 0  0.5 0.5 0  0 0.25 0  0.25 0 0  0.25 1 0  0 0.75 0  1 0.25 0  0.75 0 0  1 0.75 0  0.75 1 0  0.7083333333333333 0.2916666666666667 0  0.2916666666666666 0.7083333333333334 0  0.375 0.25 0  0.75 0.625 0  0.2569444444444444 0.4652777777777778 0  0.5366379310344828 0.7535919540229885 0  0.1875 0.1875 0  0.8125 0.8125 0  0.869047619047619 0.375 0  0.1450441919191919 0.6052714646464646 0  0.375 0.8690476190476191 0  0.5526960784313725 0.1825980392156862 0  0.8385416666666666 0.1614583333333334 0  0.1614583333333333 0.8385416666666667 0  0.6736111111111112 0.4652777777777778 0  0.1367521367521368 0.3477564102564102 0  0.6570970491253563 0.8648656830417855 0  0.5102479397556124 0.3386260301221938 0  0.3654513888888889 0.5737847222222222 0  0.6929750044954185 0.1362784921584263 0  0.388576102743835 0.411911725237599 0  0.6091269841269842 0.5942460317460317 0  0.875 0.6875 0  0.427278890279516 0.119889445139758 0  0.8544456845238095 0.5213913690476191 0  0.125 0 0  0 0.125 0  1 0.875 0  0.875 1 0  0.1280008648150532 0.4769292340226777 0  0.2695382451711197 0.3321750950221553 0  0.7031567235715964 0.7447810921428012 0  0.625 0 0  0.375 0 0  0.125 1 0  0.875 0 0  0 0.375 0  0 0.625 0  1 0.375 0  0.375 1 0  1 0.125 0  0 0.875 0  0.625 1 0  1 0.625 0  0.2979288363930608 0.1201429454643536 0  0.410919540229885 0.7484605911330049 0  0.5325041980395562 0.878905151526474 0  0.4831670727569156 0.6331060043826487 0  0.1735997378973042 0.7204747378973043 0  0.2534919507575758 0.5772372159090909 0  0.2633928571428572 0.8876488095238095 0  0.8199404761904761 0.2730654761904762 0  0.75830270586982 0.3919383189517417 0  0.5750282248382511 0.4237522353023667 0  0.6008360210023379 0.2794828358598495 0  0.08163442644334186 0.6821295860397322 0  0.08333333333333333 0.1875 0  0.2028380815996574 0.08844602719988583 0  0.2766521142611967 0.2325436572164097 0  0.90625 0.78125 0  0.890625 0.890625 0  0.7545696325008384 0.8973565441669461 0  0.5625 0.08086590340834317 0  0.09077380952380953 0.09077380952380952 0  0.4610923478694773 0.209034015149656 0  0.7542527598351648 0.5248380520595106 0  0.6459235536037465 0.3619913988405765 0  0.7560381768882634 0.20506142233852 0  0.07073252688172042 0.8125 0  0.0924753097241701 0.9078102849914793 0  0.9292674731182795 0.1875 0  0.9075246902758297 0.09218971500852073 0  0.8125 0.07073252688172045 0  0.2400955776842301 0.7869705776842302 0  0.9121050213379069 0.2781978201831695 0  0.7916878157143976 0.7239689078571988 0  0.9345238095238094 0.4375 0  0.4375 0.9345238095238095 0  0.3725616989755203 0.6651895248862173 0  0.06536271996350887 0.5625 0  0.9348362560379583 0.5625 0  0.456646798987055 0.8277247094351965 0  0.1875 0.9355758238725954 0  0.6169761231634859 0.6939779188977889 0  0.6226854751147515 0.7827911461419014 0  0.3305695598137626 0.7901697871282585 0  0.5865305325818898 0.5101085479043448 0  0.6622701297028378 0.2177663989757395 0  0.1354166666666667 0.2591702279202279 0  0 0.3125 0  0.2094429575680048 0.3936361846162499 0  0.836666296419157 0.607917407161686 0  0.6875 1 0  0.214261555450504 0.6492551722020035 0  0 0.4375 0  0.07731537126068377 0.40625 0  0.3427725432967068 0.4879566233699599 0  0.3550792513951871 0.3331953632609953 0  0.4462473953896857 0.2887834789342508 0  0.4747801464819794 0.417386052030127 0  0.8229836475148948 0.4443292349237342 0  0.7322605135514757 0.8199240278289671 0  0.6756431877205955 0.5468989748126787 0  0.1968419507215863 0.5194573482612496 0  0.3285590277777778 0.9345238095238095 0  0.8125 1 0  0.4198917601920009 0.5134893045331258 0  0.5232405503206691 0.2595791787880157 0  1 0.9375 0  0.1987510870015086 0.3025185951894431 0  0.5625 1 0  0.6005390654136388 0.9228110509230952 0  0.6411254848194414 0.07704872765442942 0  0.3357233162523242 0.1855113224530532 0  0.6730653396610877 0.6393887462324165 0  0.310966987234063 0.6240019765311626 0  0.7368737836204349 0.07457755202327881 0  0.6192316414418171 0.1485238406378594 0  0.5432429670607106 0.678552703844006 0  0.4754371679695679 0.7103946803120881 0  0.07501324890749672 0.3043839897335739 0  0.5358146975860403 0.5688321463205916 0  0.3115271739500156 0.3982137365971444 0  0.3625191397122174 0.0767854603650549 0  0.5024029442563831 0.1264128223758444 0  0.4375 0 0  0.4699946908887376 0.06379961173775725 0  0.9375 0.71875 0  0.9272105898044465 0.635671179608893 0  0.9375 1 0  0.6690971819568612 0.9331530898202766 0  0.1073454944778885 0.7499206387638554 0  0.8699082999280406 0.2232403652524313 0  0.5773118091863964 0.3548027349159383 0  0.1354166666666667 0.1428571428571428 0  0.3125 0 0  0.8241684193077341 0.9257452995055244 0  0.4352314948354036 0.3586940847489378 0  0.4351301473778832 0.5819726043539077 0  0.8073232928518163 0.3419398170341962 0  0.7775949246947366 0.1298519409204575 0  0.6875 0 0  0.7413513991851041 0.457933324954483 0  0.939453125 0.841796875 0  0.5630355154606987 0.8171875156478349 0  0.9345238095238095 0.3461466592368577 0  0.9375 0 0  1 0.0625 0  0.0625 1 0  0 0.9375 0  0.06552178593177167 0.4969053669623468 0  0.1424866619031703 0.4130277709291224 0  0.1275287182444726 0.5422946908002588 0  0.2637686595586339 0.06413888464529549 0  0.2524263535491086 0.1697437503243817 0  0.7367218397988525 0.6888573970660841 0  0.0625 0 0  0 0.0625 0  0.8463594539285995 0.7578283617857982 0  0.3128751192101563 0.2851997374369947 0  0.4015281788351144 0.1806421385113692 0  0.1910251795116588 0.4553332197174453 0  0.287797471442006 0.5222621440543902 0  0.3962628745986055 0.8097380085535307 0  0.3505895299554843 0.7304878890838692 0  0.5019151500495276 0.9356042615328103 0  0.9374389419410134 0.4999931039076005 0  0.3125 1 0  0.1875 1 0  1 0.5625 0  0.4375 1 0  1 0.3125 0  1 0.4375 0  0.8125 0 0  1 0.1875 0  0.5625 0 0  0.1875 0 0  0 0.1875 0  0 0.5625 0  0 0.6875 0  0 0.8125 0  1 0.6875 0  1 0.8125 0  0.8021696218581627 0.6612893947866073 0  0.06154922295426143 0.6239401126946708 0  0.9359375 0.9359375 0  0.4666158024849896 0.7691515918155014 0  0.2318201265217025 0.7064974250277525 0  0.1565954253579966 0.6635489312486841 0  0.1598132503680848 0.7787147500325552 0  0.3146529991605639 0.8510876378205265 0  0.1461873209418733 0.05982804528877814 0  0.06109554988524315 0.2446551776247686 0  0.8054950308560754 0.5564226538848541 0  0.470541749491976 0.8853316336952531 0  0.6948472567465137 0.4042308563372457 0  0.8802828472348889 0.4658893256343853 0  0.6788075634946739 0.7974194205806069 0  0.2155048659603867 0.2428201584940968 0  0.8131223143423806 0.2132171049028394 0  0.4330798005432235 0.6671274900735726 0  0.6015279126162613 0.2187368078743274 0  0.8061636571464289 0.8703766630361714 0  0.7008230445061776 0.3478568388444072 0  0.8638466246958771 0.3147095987735538 0  0.204801534004265 0.8789209409594009 0  0.2449006736431132 0.9424182882803838 0  0.7611268409371427 0.2643056884799992 0  0.7552800864046191 0.7678006649959446 0  0.5983639638906616 0.864113435029236 0  0.1956559506814437 0.577281203577426 0  0.3527670268164207 0.1320469097565204 0  0.7530364577483248 0.3262386077083089 0  0.4535919187979363 0.4690107087451527 0  0.8824869791666666 0.8336588541666666 0  0.8814453125 0.9451171875 0  0.5582987942628019 0.622421666543858 0  0.6817532446064828 0.6939001801354731 0  0.3830295138888889 0.9450968952922078 0  0.4140603937012541 0.05211333372716105 0  0.5535864501303013 0.3060591985391672 0  0.6560130086346878 0.2729726562211558 0  0.890203140221684 0.5948314305427268 0  0.7043857725999024 0.593980890020804 0  0.5105843922695152 0.8016828014338627 0  0.05365910753708378 0.7315110031682004 0  0.616904573672261 0.4621186633436136 0  0.5338511646455415 0.387875898899613 0  0.5231769258947843 0.4477682463140762 0  0.650302973237622 0.7370722302085519 0  0.3927483139621257 0.4662414504529014 0  0.8034595960585199 0.4972538342758211 0  0.7738337841682438 0.9496376207663251 0  0.7193737507158268 0.954685447650112 0  0.482525916480686 0.5528257169991676 0  0.2533501157346781 0.2809495420003238 0  0.3118487924482243 0.5702930126570319 0  0.6257598847669529 0.4104163315430518 0  0.1354166666666667 0.1955605158730158 0  0.04166666666666666 0.15625 0  0.3956448985530264 0.6174149462065157 0  0.8102897701818546 0.3938784238208349 0  0.2641154190013625 0.8344469561943118 0  0.642852220770013 0.5068794586563659 0  0.05271458179508221 0.355846947336007 0  0.7021551360070266 0.8921457280225779 0  0.5692125776683765 0.1328512638850284 0  0.5206162811937602 0.04865158770992991 0  0.6001838442201555 0.04540556991297563 0  0.2597716608242787 0.4118346398477178 0  0.4040584599473195 0.3179589136784675 0  0.1480337679295207 0.8941560631483065 0  0.1344356707112281 0.9466251177415842 0  0.7114696411829317 0.4983917389078826 0  0.7585704698442475 0.5751926345944629 0  0.2189131956390871 0.04022068508159698 0  0.2476935455192043 0.1123642267635843 0  0.185995005654517 0.1365524537205238 0  0.6223414373308711 0.643380839165121 0  0.5732602596637543 0.7190051747306219 0  0.268358222364537 0.6586246524467934 0  0.3265879848129173 0.2369791782191225 0  0.1267095595787346 0.7034787238999181 0  0.1115202922226038 0.6421997933884982 0  0.3128688392940203 0.07260997451790079 0  0.550724900485678 0.9253360991633187 0  0.7142608810459105 0.2384904702214873 0  0.7045869185243887 0.1871826897887429 0  0.890625 0.734375 0  0.953125 0.765625 0  0.2111812642821677 0.8286209446459138 0  0.9590293078204457 0.09375 0  0.953431269039847 0.1435719386408004 0  0.04097069217955424 0.90625 0  0.04656873096015299 0.8564280613591996 0  0.1078743037981226 0.8541621766048062 0  0.8921256962018773 0.1458378233951939 0  0.8521576979194619 0.1084496634207678 0  0.8655663982740958 0.05464346096571447 0  0.04005659640905543 0.09375 0  0.1001448316533417 0.04246776244228261 
[...]
<CellData  Vectors="f_8394-1"> 
<DataArray  type="Float64"  Name="f_8394-1"  NumberOfComponents="3" format="ascii">6.4253297920669332e-05  5.8016326541799698e-05 0.0000000000000000e+00  2.8466450523654548e-05  3.1339611265116810e-05 0.0000000000000000e+00  2.2238473362164119e-05  3.0232008284577405e-05 0.0000000000000000e+00  1.5346980514674328e-05  2.2875243510009486e-05 0.0000000000000000e+00  3.6915077229466415e-05  6.2014428964847292e-05 0.0000000000000000e+00  3.2853306847147103e-05  3.8042955042964830e-05 0.0000000000000000e+00  3.2753664435134770e-05  1.5211077770194078e-04 0.0000000000000000e+00  1.5278873720198826e-05  2.2684283853548654e-04 0.0000000000000000e+00  1.9152358566120641e-04  1.9410120993221727e-05 0.0000000000000000e+00  8.8938015076265087e-05  2.6017593579804161e-06 0.0000000000000000e+00  4.2964926696232579e-05  2.5329716729944323e-05 0.0000000000000000e+00  1.3303407758627863e-04  1.6019705652708976e-04 0.0000000000000000e+00  1.0535456543730380e-04  1.9868024620966595e-04 0.0000000000000000e+00  1.5752425800879451e-04  1.1352787938635838e-04 0.0000000000000000e+00  1.9694897141651308e-04  9.0024441184515682e-05 0.0000000000000000e+00  1.7147272305181142e-04  6.6866117415998982e-05 0.0000000000000000e+00  1.1608192292886966e-04  1.2849806106887693e-04 0.0000000000000000e+00  5.6238930845327941e-05  6.8650901623105401e-05 0.0000000000000000e+00  3.4515433753040352e-05  1.4889547210993236e-04 0.0000000000000000e+00  8.5420472220940402e-05  3.8601387267599687e-05 0.0000000000000000e+00  8.8771579557888383e-05  2.8702235822922307e-05 0.0000000000000000e+00  1.5697649767594036e-04  6.0852049139272180e-05 0.0000000000000000e+00  1.7440573837855560e-04  5.5289590145821343e-05 0.0000000000000000e+00  2.4833968847654844e-05  1.5574511132317867e-04 0.0000000000000000e+00  3.0255803985151936e-05  8.4474648098638658e-05 0.0000000000000000e+00  3.9768444757136958e-05  1.8992605186514226e-04 0.0000000000000000e+00  7.4050691718711079e-06  4.2113207944413555e-05 0.0000000000000000e+00  1.4834058354097160e-04  2.6522216521457151e-05 0.0000000000000000e+00  1.3231530410963817e-05  2.2309900225418912e-04 0.0000000000000000e+00  8.2072715687587762e-05  1.1731105245146257e-05 0.0000000000000000e+00  1.9444100493073754e-04  3.1468140212044717e-05 0.0000000000000000e+00  7.2129283986668437e-05  1.0744212388512147e-04 0.0000000000000000e+00  7.2417821885513594e-05  4.5703148154643582e-05 0.0000000000000000e+00  1.1322674078008330e-04  1.8039097647967639e-04 0.0000000000000000e+00  5.1779065784038576e-05  1.6367262952981815e-05 0.0000000000000000e+00  7.5503029909623998e-05  3.8862860110906084e-05 0.0000000000000000e+00  6.7533164878259787e-05  9.0449483765597216e-05 0.0000000000000000e+00  3.7464618493214271e-05  1.6128384320245639e-04 0.0000000000000000e+00  1.1492509552476727e-04  2.9033017745148017e-05 0.0000000000000000e+00  6.0213562289995030e-05  4.9463598060524766e-05 0.0000000000000000e+00  5.9664204017279230e-05  4.5870909037145843e-05 0.0000000000000000e+00  8.8341379262142701e-05  5.7507122977273388e-05 0.0000000000000000e+00  1.8034424247774584e-04  8.2994252191515187e-05 0.0000000000000000e+00  1.9746156599207809e-04  8.5904447771487582e-05 0.0000000000000000e+00  3.5518213911459876e-05  1.5189830978365192e-05 0.0000000000000000e+00  2.3107559330137064e-04  1.1310987588195566e-04 0.0000000000000000e+00  1.6868124856204294e-04  8.2161080113823820e-05 0.0000000000000000e+00  2.6826351131315708e-05  3.7512377079361350e-05 0.0000000000000000e+00  2.2155264065007931e-04  1.6298783208778164e-04 0.0000000000000000e+00  2.1294616164968197e-04  1.3185682675365273e-04 0.0000000000000000e+00  1.8114533097153115e-04  1.7374370431181597e-04 0.0000000000000000e+00  2.0037763191869292e-04  1.9537225806091324e-04 0.0000000000000000e+00  4.0793097445980376e-05  9.8032209891134027e-05 0.0000000000000000e+00  7.6183898339165953e-05  3.5400303491718125e-05 0.0000000000000000e+00  3.6302914760745409e-05  5.4919578892829845e-05 0.0000000000000000e+00  1.3892260285388599e-04  1.4098585244338960e-04 0.0000000000000000e+00  1.1295505275145347e-04  1.0231175511891953e-04 0.0000000000000000e+00  1.0449362871704670e-04  4.7233211393874566e-05 0.0000000000000000e+00  5.0074400202200245e-05  1.5423883832794411e-05 0.0000000000000000e+00  2.1125312505996217e-05  2.0637530832223175e-04 0.0000000000000000e+00  1.2147052948034191e-05  1.9760317569463915e-04 0.0000000000000000e+00  1.7825346676238272e-04  3.5374766019806543e-05 0.0000000000000000e+00  3.0139382372751735e-05  5.2725457645647467e-05 0.0000000000000000e+00  2.4678615456559773e-05  9.8506289973191951e-05 0.0000000000000000e+00  4.2154565233154752e-05  1.0487438201427271e-04 0.0000000000000000e+00  1.6354835675143264e-04  3.3158013165047296e-05 0.0000000000000000e+00  3.0096766215021306e-05  1.5705502678932010e-04 0.0000000000000000e+00  2.1007403900068642e-04  1.8336852342291753e-05 0.0000000000000000e+00  1.3118249819012584e-05  2.1865813286093422e-04 0.0000000000000000e+00  7.1726090107836107e-05  2.3095494749260847e-04 0.0000000000000000e+00  7.8621735017659372e-05  2.1463570820978541e-04 0.0000000000000000e+00  1.8841214954183369e-04  1.0495412389332969e-04 0.0000000000000000e+00  4.7326722530967647e-05  3.4718963881608476e-05 0.0000000000000000e+00  5.2722035209529378e-05  9.5626128125614036e-05 0.0000000000000000e+00  9.2270737065336834e-05  1.3144632910805338e-04 0.0000000000000000e+00  5.3872990188157260e-05  1.7616503647920561e-04 0.0000000000000000e+00  7.5471349155803224e-05  1.7401555251432476e-04 0.0000000000000000e+00  7.8212396800306089e-05  1.2482295531674205e-04 0.0000000000000000e+00  6.1161708399091387e-05  1.5703231917713162e-04 0.0000000000000000e+00  2.3216660136728687e-05  1.1088235015758705e-04 0.0000000000000000e+00  2.0458587168297392e-05  8.7718301813705527e-05 0.0000000000000000e+00  1.7174586321577696e-05  8.3328924417280244e-05 0.0000000000000000e+00  3.0240807404536060e-05  7.8091234764142867e-05 0.0000000000000000e+00  1.5994040876266889e-05  2.3065654451785383e-04 0.0000000000000000e+00  2.0400067610772661e-04  2.9910553171550653e-05 0.0000000000000000e+00  1.2620111479730403e-04  2.7287739845987281e-05 0.0000000000000000e+00  1.2942307154985424e-04  4.9271642742844580e-05 0.0000000000000000e+00  1.9149959851885194e-04  3.4219864078215377e-05 0.0000000000000000e+00  1.3170965341973459e-04  6.8258577535790522e-05 0.0000000000000000e+00  8.2285384283110029e-05  6.4244840926639971e-05 0.0000000000000000e+00  1.2577639056152759e-04  2.8333031640628666e-05 0.0000000000000000e+00  1.0337046816522518e-04  3.7304541433631809e-05 0.0000000000000000e+00  2.3442081386336415e-05  1.3500634941552257e-05 0.0000000000000000e+00  1.7397435909312992e-05  1.5825444653664442e-06 0.0000000000000000e+00  3.3360523146946138e-05  3.5231417457525784e-05 0.0000000000000000e+00  4.4645129271869925e-05  3.8818726760939705e-05 0.0000000000000000e+00  4.9391163854194578e-05  2.2999432846923097e-05 0.0000000000000000e+00  1.4148954169252722e-04  2.2551717518345333e-04 0.0000000000000000e+00  1.3684093238073138e-04  2.0647738650142193e-04 0.0000000000000000e+00  6.9669497088112277e-05  4.9097194415607055e-05 0.0000000000000000e+00  4.8167977273550131e-05  3.9968441918628597e-05 0.0000000000000000e+00  5.8789158014155779e-05  4.5832940483144485e-05 0.0000000000000000e+00  7.3344866874692873e-05  3.1020793930373556e-05 0.0000000000000000e+00  1.2064695443645267e-04  9.5092259605024818e-05 0.0000000000000000e+00  1.2012320652732805e-04  7.8055948532476099e-05 0.0000000000000000e+00  1.5149115523212264e-04  3.8091679019371538e-05 0.0000000000000000e+00  1.2486955985613790e-04  6.0110329943638578e-05 0.0000000000000000e+00  1.3128033868652197e-04  3.4519654932062609e-05 0.0000000000000000e+00  1.0853180370020022e-04  2.2009832157257729e-05 0.0000000000000000e+00  1.8731369827096336e-05  1.8664270729316977e-04 0.0000000000000000e+00  2.4107927904434053e-05  1.9486563736575283e-04 0.0000000000000000e+00  2.2397686551002758e-04  1.2339689104439747e-05 0.0000000000000000e+00  2.1676215669164502e-04  2.3965909589444744e-05 0.0000000000000000e+00  1.6347308474990734e-04  1.9071644785673033e-05 0.0000000000000000e+00  1.5936969286965713e-04  1.0628705536413820e-05 0.0000000000000000e+00  2.6491192436295696e-05  1.5502948234021624e-04 0.0000000000000000e+00  3.6714162853262228e-05  1.2070947454279712e-04 0.0000000000000000e+00  2.2268439858842904e-04  2.9140256309055125e-05 0.0000000000000000e+00  1.7531708530519658e-04  1.1456034255163395e-04 0.0000000000000000e+00  1.5053941938805005e-04  1.3245919001399361e-04 0.0000000000000000e+00  6.5765347166564476e-05  1.8960545525429330e-04 0.0000000000000000e+00  6.4623918014808141e-05  2.1749410791401644e-04 0.0000000000000000e+00  3.5514596872127033e-05  7.7244604959992550e-05 0.0000000000000000e+00  4.7418095373513441e-05  9.9567787282984482e-05 0.0000000000000000e+00  2.3971370176882123e-05  7.7206844037602172e-05 0.0000000000000000e+00  3.7563753179787350e-05  9.0603934248435910e-05 0.0000000000000000e+00  2.0125911022145750e-04  6.3685788976632681e-05 0.0000000000000000e+00  2.1498408645859201e-04  7.7586675134203994e-05 0.0000000000000000e+00  5.4822588956186207e-05  2.0736344372897326e-04 0.0000000000000000e+00  5.6892838459612636e-05  1.1987017011281528e-04 0.0000000000000000e+00  8.4452078431022850e-05  9.4671683036842068e-05 0.0000000000000000e+00  9.9587010470835320e-05  8.4575005649161039e-05 0.0000000000000000e+00  8.7046389568150694e-05  1.8444174489399450e-04 0.0000000000000000e+00  7.8680841792521159e-05  1.8256274745115240e-04 0.0000000000000000e+00  4.2227041271396457e-05  1.8986057944934360e-04 0.0000000000000000e+00  4.9208501980967780e-05  2.0748122604374693e-04 0.0000000000000000e+00  1.0637953811202168e-04  9.9915137249824619e-05 0.0000000000000000e+00  7.6796299880992652e-05  1.1518050763075868e-04 0.0000000000000000e+00  1.2076781171918119e-04  3.1187031809929885e-05 0.0000000000000000e+00  1.3398773483214280e-04  2.8519776461788717e-05 0.0000000000000000e+00  1.9498501386927587e-05  3.4859875998598759e-05 0.0000000000000000e+00  2.5820324159512445e-05  1.0410004465858285e-05 0.0000000000000000e+00  1.8785555063405199e-05  2.7843986881739456e-05 0.0000000000000000e+00  3.8571222132986668e-05  1.3489184681301363e-05 0.0000000000000000e+00  3.0307971050659837e-05  7.7758936863325792e-05 0.0000000000000000e+00  2.9792871950299245e-05  5.0303243540147592e-05 0.0000000000000000e+00  2.1200535253153708e-04  1.0760689346516147e-04 0.0000000000000000e+00  1.6723156569105408e-04  9.6109116860712890e-05 0.0000000000000000e+00  1.0563391896296482e-04  1.8406791416404611e-04 0.0000000000000000e+00  1.1660597088267563e-04  2.1524836454476972e-04 0.0000000000000000e+00  2.1968226949890871e-05  1.3715891875989842e-04 0.0000000000000000e+00  4.0100993300083602e-05  1.1708777159229841e-04 0.0000000000000000e+00  2.2227186332252161e-05  4.2060030433182023e-05 0.0000000000000000e+00  1.6355571264601414e-05  3.1482185063003395e-05 0.0000000000000000e+00  1.9204404716318240e-05  4.8830184667554413e-05 0.0000000000000000e+00  3.6695079549904248e-05  7.2470044670377087e-05 0.0000000000000000e+00  4.5783845279402102e-05  6.5739630388568008e-05 0.0000000000000000e+00  6.6671490707613187e-05  1.7549663453785272e-05 0.0000000000000000e+00  7.6843133348234780e-05  5.2394359071578393e-05 0.0000000000000000e+00  5.9369528908462343e-05  7.4473024942522226e-05 0.0000000000000000e+00  4.4972478965075632e-05  4.8009181884214233e-05 0.0000000000000000e+00  8.3812461304154140e-05  5.2538705085735787e-05 0.0000000000000000e+00  7.2531197118145036e-05  7.6738176221293305e-05 0.0000000000000000e+00  2.0352978414488223e-04  5.0708919727354900e-05 0.0000000000000000e+00  1.6784850407632293e-04  6.4886883242599042e-05 0.0000000000000000e+00  1.4585386303394117e-04  1.4613514699184468e-04 0.0000000000000000e+00  1.3681655509992222e-04  1.5137551114236518e-04 0.0000000000000000e+00  1.2286781674657947e-04  8.2693916747541259e-05 0.0000000000000000e+00  1.0190264636792286e-04  6.5184160051633518e-05 0.0000000000000000e+00  5.0151334041365533e-05  6.6493519389614747e-05 0.0000000000000000e+00  3.2762518892052775e-05  4.2745781325602400e-05 0.0000000000000000e+00  4.3874015143673710e-05  1.9647873459310221e-04 0.0000000000000000e+00  3.0081827875366258e-05  2.4159987412030736e-04 0.0000000000000000e+00  1.9356902268199440e-04  2.3484724469413848e-04 0.0000000000000000e+00  1.8112677921835641e-04  2.1017264541397409e-04 0.0000000000000000e+00  6.6964812532448691e-05  7.4560303520505419e-05 0.0000000000000000e+00  5.3204794427340203e-05  1.0048536765512828e-04 0.0000000000000000e+00  1.1829405081184906e-04  2.7294657027805121e-05 0.0000000000000000e+00  9.3820407103631763e-05  3.8873727729327664e-05 0.0000000000000000e+00  2.1273608838645982e-04  2.0187597712555626e-04 0.0000000000000000e+00  1.9686334083604900e-04  2.0709638655727906e-04 0.0000000000000000e+00  2.0148593292429417e-05  4.1986862962183314e-05 0.0000000000000000e+00  1.8149523729095592e-05  4.7281673772357971e-05 0.0000000000000000e+00  6.5753602643338260e-05  2.2949069754378280e-04 0.0000000000000000e+00  9.2789034835935686e-05  2.2974980508702893e-04 0.0000000000000000e+00  1.0825057318746768e-04  2.1251440183054518e-04 0.0000000000000000e+00  9.3506941677928501e-05  2.2319126514503071e-04 0.0000000000000000e+00  1.4155754729603290e-04  1.4889865733163381e-05 0.0000000000000000e+00  6.3814369306662951e-05  4.1889734856768188e-05 0.0000000000000000e+00  6.8357761718893252e-05  4.5409566063324786e-05 0.0000000000000000e+00  1.1697032335214835e-04  9.8255595987598710e-05 0.0000000000000000e+00  1.0994899370466655e-04  1.1137179741316533e-04 0.0000000000000000e+00  4.1255804955156395e-05  9.6301190510516052e-05 0.0000000000000000e+00  3.2319693777364713e-05  9.2588595388271375e-05 0.0000000000000000e+00  1.1917063128591999e-04  2.1108051034542676e-05 0.0000000000000000e+00  1.1839545865912107e-04  2.6804741625545185e-05 0.0000000000000000e+00  1.1585027736277704e-04  4.2857798454831630e-05 0.0000000000000000e+00  1.0105128264830930e-04  3.0741103181525711e-05 0.0000000000000000e+00  6.4491029998258898e-05  1.4989719072291038e-04 0.0000000000000000e+00  5.5754174350806682e-05  1.2048696649848760e-04 0.0000000000000000e+00  5.3834956224569470e-05  1.1865076491104037e-04 0.0000000000000000e+00  5.6354415623079894e-05  1.3279903461438369e-04 0.0000000000000000e+00  3.7532503567228381e-05  2.1252896501731533e-05 0.0000000000000000e+00  2.7748524927207481e-05  4.1018262178229965e-05 0.0000000000000000e+00  8.4967098792062314e-05  8.8394740575863622e-05 0.0000000000000000e+00  9.9708829553433759e-05  9.1977712489674482e-05 0.0000000000000000e+00  5.6494095963185842e-05  4.9259246627883471e-05 0.0000000000000000e+00  1.7037051628356463e-05  6.7102426539044342e-05 0.0000000000000000e+00  4.3178681475153522e-05  1.8929335708233938e-05 0.0000000000000000e+00  8.1718439220956798e-05  4.8901309667407492e-05 0.0000000000000000e+00  9.0855462737643555e-05  3.0040833332641354e-05 0.0000000000000000e+00  6.2553016929122365e-05  4.4976033718031003e-05 0.0000000000000000e+00  5.3847942462461556e-05  5.5696055491953084e-05 0.0000000000000000e+00  6.0792976363329043e-05  4.4878966918263521e-05 0.0000000000000000e+00  4.5716980897173003e-05  3.0548908491383915e-05 0.0000000000000000e+00  2.1955859424602062e-04  1.1644956430460213e-04 0.0000000000000000e+00  2.1826813686577740e-04  1.3381323653011921e-04 0.0000000000000000e+00  2.0328814516841907e-04  1.1287123556058343e-04 0.0000000000000000e+00  2.0309241758622822e-04  2.0592964972949353e-04 0.0000000000000000e+00  1.3305094887547579e-04  2.3239426941309933e-04 0.0000000000000000e+00  2.4477030611192051e-05  1.4829147948308368e-04 0.0000000000000000e+00  2.4316172486948026e-05  1.3373783816525393e-04 0.0000000000000000e+00  1.7196405926835361e-04  2.8297328767849845e-05 0.0000000000000000e+00  2.2352389148604730e-04  1.5766092648665606e-05 0.0000000000000000e+00  9.8026578174389902e-05  5.9585840322182721e-05 0.0000000000000000e+00  5.9150182538081358e-05  4.9041348203161841e-05 0.0000000000000000e+00  4.3157640350848769e-05  2.7139790837442955e-05 0.0000000000000000e+00  3.7316415778184532e-05  2.9782807802732333e-05 0.0000000000000000e+00  1.6968032291912819e-04  1.7645471751289235e-04 0.0000000000000000e+00  1.9143335311721241e-04  1.7635345482464764e-04 0.0000000000000000e+00  4.3580448746480926e-05  4.8541336365045654e-05 0.0000000000000000e+00  8.3210850853268807e-05  4.5525744622102552e-05 0.0000000000000000e+00  2.4497972947066103e-05  1.3943949116669929e-04 0.0000000000000000e+00  3.4760917043705756e-05  1.0855543364270156e-04 0.0000000000000000e+00  1.7747689760924359e-04  2.7640288253583125e-05 0.0000000000000000e+00  1.9495114026896375e-04  2.8317934274667775e-05 0.0000000000000000e+00  2.0381945159631348e-04  2.0110077067563972e-05 0.0000000000000000e+00  1.4718958833164449e-04  7.1201599085783091e-06 0.0000000000000000e+00  1.2380654019642038e-04  1.4904261574617416e-05 0.0000000000000000e+00  1.2259244783545829e-04  6.4535643998650622e-05 0.0000000000000000e+00  1.4679880289169265e-04  3.5016153361257346e-05 0.0000000000000000e+00  2.0994482509084427e-04  1.7972533471368054e-04 0.0000000000000000e+00  7.3467452464434009e-05  1.7701244346886254e-04 0.0000000000000000e+00  7.2100840305932372e-05  1.4398149962146413e-04 0.0000000000000000e+00  2.1380985592497570e-04  4.1477614168095073e-05 0.0000000000000000e+00  2.0234340867243938e-04  5.6949583736003009e-05 0.0000000000000000e+00  2.6456177589295190e-04  3.7946675314602124e-06 0.0000000000000000e+00  1.8976832339170734e-05  2.2755099707253169e-04 0.0000000000000000e+00  3.5241125648081500e-06  2.5658466993135206e-04 0.0000000000000000e+00  3.8825990354247227e-05  6.2618688874732989e-05 0.0000000000000000e+00  2.1139153729689327e-05  8.4049656374044006e-05 0.0000000000000000e+00  2.3260122795311494e-05  3.8185068282287920e-05 0.0000000000000000e+00  2.4645991455469192e-05  4.5672647965916070e-05 0.0000000000000000e+00  4.3710749833239743e-05  5.1910905373120587e-05 0.0000000000000000e+00  3.1137159492831523e-05  1.0009495467370556e-04 0.0000000000000000e+00  2.8781340787351085e-05  5.4557638485481445e-05 0.0000000000000000e+00  1.7712186223177730e-05  2.1392517360962239e-05 0.0000000000000000e+00  2.1985257528294849e-05  4.3651958266825719e-05 0.0000000000000000e+00  2.4528199210521529e-05  1.3771462844812194e-05 0.0000000000000000e+00  1.2688041434788470e-04  1.2126403158565927e-04 0.0000000000000000e+00  1.4243255597836419e-04  1.1876768648443578e-04 0.0000000000000000e+00  2.5911574323472186e-05  -4.0364954417070329e-06 0.0000000000000000e+00  2.6783671394866627e-05  -1.4805643605785279e-06 0.0000000000000000e+00  2.4151464520978299e-05  5.0409797042485585e-05 0.0000000000000000e+00  1.9241620127074516e-04  1.4871904412686014e-04 0.0000000000000000e+00  1.7802468227317311e-04  1.7456137903518689e-04 0.0000000000000000e+00  4.1377057759749492e-05  3.4531883984612213e-05 0.0000000000000000e+00  2.3009871213224822e-05  2.9891236443699183e-05 0.0000000000000000e+00  4.5895835717205610e-05  2.7412579246404403e-05 0.0000000000000000e+00  8.2259926292897216e-05  1.9503609754930263e-05 0.0000000000000000e+00  3.5999425010388928e-05  6.5021208862108205e-05 0.0000000000000000e+00  1.6691865133658282e-05  7.0986624992570502e-05 0.0000000000000000e+00  4.2204327528818809e-05  8.5162044432202054e-05 0.0000000000000000e+00  3.6815387629289682e-05  8.1067108442865488e-05 0.0000000000000000e+00  4.3026927095625995e-05  1.6779052397972112e-04 0.0000000000000000e+00  4.9092207631177968e-05  1.7060626259264163e-04 0.0000000000000000e+00  4.3392181135801481e-05  1.1612834690730209e-04 0.0000000000000000e+00  4.0724324313438570e-05  1.4464207499922119e-04 0.0000000000000000e+00  7.5245690157486067e-05  2.3456131035894006e-04 0.0000000000000000e+00  6.2896570482786284e-05  2.4723242962582944e-04 0.0000000000000000e+00  2.3