<?xml version="1.0"?>
<VTKFile type="UnstructuredGrid"  version="0.1"  >
<UnstructuredGrid>
<Piece  NumberOfPoints="1385" NumberOfCells="2640">
<Points>
<DataArray  type="Float64"  NumberOfComponents="3"  format="ascii">0 0 0  1 0 0  1 1 0  0 1 0  0.5 0 0  1 0.5 0  0.5 1 0  0 0.5 0  0.5 0.5 0  0 0.25 0  0.25 0 0  0.25 1 0  0 0.75 0  1 0.25 0  0.75 0 0  1 0.75 0  0.75 1 0  0.7083333333333333 0.2916666666666667 0  0.2916666666666666 0.7083333333333334 0  0.375 0.25 0  0.75 0.625 0  0.2569444444444444 0.4652777777777778 0  0.5366379310344828 0.7535919540229885 0  0.1875 0.1875 0  0.8125 0.8125 0  0.869047619047619 0.375 0  0.1450441919191919 0.6052714646464646 0  0.375 0.8690476190476191 0  0.5526960784313725 0.1825980392156862 0  0.8385416666666666 0.1614583333333334 0  0.1614583333333333 0.8385416666666667 0  0.6736111111111112 0.4652777777777778 0  0.1367521367521368 0.3477564102564102 0  0.6570970491253563 0.8648656830417855 0  0.5102479397556124 0.3386260301221938 0  0.3654513888888889 0.5737847222222222 0  0.6929750044954185 0.1362784921584263 0  0.388576102743835 0.411911725237599 0  0.6091269841269842 0.5942460317460317 0  0.875 0.6875 0  0.427278890279516 0.119889445139758 0  0.8544456845238095 0.5213913690476191 0  0.125 0 0  0 0.125 0  1 0.875 0  0.875 1 0  0.1280008648150532 0.4769292340226777 0  0.2695382451711197 0.3321750950221553 0  0.7031567235715964 0.7447810921428012 0  0.625 0 0  0.375 0 0  0.125 1 0  0.875 0 0  0 0.375 0  0 0.625 0  1 0.375 0  0.375 1 0  1 0.125 0  0 0.875 0  0.625 1 0  1 0.625 0  0.2979288363930608 0.1201429454643536 0  0.410919540229885 0.7484605911330049 0  0.5325041980395562 0.878905151526474 0  0.4831670727569156 0.6331060043826487 0  0.1735997378973042 0.7204747378973043 0  0.2534919507575758 0.5772372159090909 0  0.2633928571428572 0.8876488095238095 0  0.8199404761904761 0.2730654761904762 0  0.75830270586982 0.3919383189517417 0  0.5750282248382511 0.4237522353023667 0  0.6008360210023379 0.2794828358598495 0  0.08163442644334186 0.6821295860397322 0  0.08333333333333333 0.1875 0  0.2028380815996574 0.08844602719988583 0  0.2766521142611967 0.2325436572164097 0  0.90625 0.78125 0  0.890625 0.890625 0  0.7545696325008384 0.8973565441669461 0  0.5625 0.08086590340834317 0  0.09077380952380953 0.09077380952380952 0  0.4610923478694773 0.209034015149656 0  0.7542527598351648 0.5248380520595106 0  0.6459235536037465 0.3619913988405765 0  0.7560381768882634 0.20506142233852 0  0.07073252688172042 0.8125 0  0.0924753097241701 0.9078102849914793 0  0.9292674731182795 0.1875 0  0.9075246902758297 0.09218971500852073 0  0.8125 0.07073252688172045 0  0.2400955776842301 0.7869705776842302 0  0.9121050213379069 0.2781978201831695 0  0.7916878157143976 0.7239689078571988 0  0.9345238095238094 0.4375 0  0.4375 0.9345238095238095 0  0.3725616989755203 0.6651895248862173 0  0.06536271996350887 0.5625 0  0.9348362560379583 0.5625 0  0.456646798987055 0.8277247094351965 0  0.1875 0.9355758238725954 0  0.6169761231634859 0.6939779188977889 0  0.6226854751147515 0.7827911461419014 0  0.3305695598137626 0.7901697871282585 0  0.5865305325818898 0.5101085479043448 0  0.6622701297028378 0.2177663989757395 0  0.1354166666666667 0.2591702279202279 0  0 0.3125 0  0.2094429575680048 0.3936361846162499 0  0.836666296419157 0.607917407161686 0  0.6875 1 0  0.214261555450504 0.6492551722020035 0  0 0.4375 0  0.07731537126068377 0.40625 0  0.3427725432967068 0.4879566233699599 0  0.3550792513951871 0.3331953632609953 0  0.4462473953896857 0.2887834789342508 0  0.4747801464819794 0.417386052030127 0  0.8229836475148948 0.4443292349237342 0  0.7322605135514757 0.8199240278289671 0  0.6756431877205955 0.5468989748126787 0  0.1968419507215863 0.5194573482612496 0  0.3285590277777778 0.9345238095238095 0  0.8125 1 0  0.4198917601920009 0.5134893045331258 0  0.5232405503206691 0.2595791787880157 0  1 0.9375 0  0.1987510870015086 0.3025185951894431 0  0.5625 1 0  0.6005390654136388 0.9228110509230952 0  0.6411254848194414 0.07704872765442942 0  0.3357233162523242 0.1855113224530532 0  0.6730653396610877 0.6393887462324165 0  0.310966987234063 0.6240019765311626 0  0.7368737836204349 0.07457755202327881 0  0.6192316414418171 0.1485238406378594 0  0.5432429670607106 0.678552703844006 0  0.4754371679695679 0.7103946803120881 0  0.07501324890749672 0.3043839897335739 0  0.5358146975860403 0.5688321463205916 0  0.3115271739500156 0.3982137365971444 0  0.3625191397122174 0.0767854603650549 0  0.5024029442563831 0.1264128223758444 0  0.4375 0 0  0.4699946908887376 0.06379961173775725 0  0.9375 0.71875 0  0.9272105898044465 0.635671179608893 0  0.9375 1 0  0.6690971819568612 0.9331530898202766 0  0.1073454944778885 0.7499206387638554 0  0.8699082999280406 0.2232403652524313 0  0.5773118091863964 0.3548027349159383 0  0.1354166666666667 0.1428571428571428 0  0.3125 0 0  0.8241684193077341 0.9257452995055244 0  0.4352314948354036 0.3586940847489378 0  0.4351301473778832 0.5819726043539077 0  0.8073232928518163 0.3419398170341962 0  0.7775949246947366 0.1298519409204575 0  0.6875 0 0  0.7413513991851041 0.457933324954483 0  0.939453125 0.841796875 0  0.5630355154606987 0.8171875156478349 0  0.9345238095238095 0.3461466592368577 0  0.9375 0 0  1 0.0625 0  0.0625 1 0  0 0.9375 0  0.06552178593177167 0.4969053669623468 0  0.1424866619031703 0.4130277709291224 0  0.1275287182444726 0.5422946908002588 0  0.2637686595586339 0.06413888464529549 0  0.2524263535491086 0.1697437503243817 0  0.7367218397988525 0.6888573970660841 0  0.0625 0 0  0 0.0625 0  0.8463594539285995 0.7578283617857982 0  0.3128751192101563 0.2851997374369947 0  0.4015281788351144 0.1806421385113692 0  0.1910251795116588 0.4553332197174453 0  0.287797471442006 0.5222621440543902 0  0.3962628745986055 0.8097380085535307 0  0.3505895299554843 0.7304878890838692 0  0.5019151500495276 0.9356042615328103 0  0.9374389419410134 0.4999931039076005 0  0.3125 1 0  0.1875 1 0  1 0.5625 0  0.4375 1 0  1 0.3125 0  1 0.4375 0  0.8125 0 0  1 0.1875 0  0.5625 0 0  0.1875 0 0  0 0.1875 0  0 0.5625 0  0 0.6875 0  0 0.8125 0  1 0.6875 0  1 0.8125 0  0.8021696218581627 0.6612893947866073 0  0.06154922295426143 0.6239401126946708 0  0.9359375 0.9359375 0  0.4666158024849896 0.7691515918155014 0  0.2318201265217025 0.7064974250277525 0  0.1565954253579966 0.6635489312486841 0  0.1598132503680848 0.7787147500325552 0  0.3146529991605639 0.8510876378205265 0  0.1461873209418733 0.05982804528877814 0  0.06109554988524315 0.2446551776247686 0  0.8054950308560754 0.5564226538848541 0  0.470541749491976 0.8853316336952531 0  0.6948472567465137 0.4042308563372457 0  0.8802828472348889 0.4658893256343853 0  0.6788075634946739 0.7974194205806069 0  0.2155048659603867 0.2428201584940968 0  0.8131223143423806 0.2132171049028394 0  0.4330798005432235 0.6671274900735726 0  0.6015279126162613 0.2187368078743274 0  0.8061636571464289 0.8703766630361714 0  0.7008230445061776 0.3478568388444072 0  0.8638466246958771 0.3147095987735538 0  0.204801534004265 0.8789209409594009 0  0.2449006736431132 0.9424182882803838 0  0.7611268409371427 0.2643056884799992 0  0.7552800864046191 0.7678006649959446 0  0.5983639638906616 0.864113435029236 0  0.1956559506814437 0.577281203577426 0  0.3527670268164207 0.1320469097565204 0  0.7530364577483248 0.3262386077083089 0  0.4535919187979363 0.4690107087451527 0  0.8824869791666666 0.8336588541666666 0  0.8814453125 0.9451171875 0  0.5582987942628019 0.622421666543858 0  0.6817532446064828 0.6939001801354731 0  0.3830295138888889 0.9450968952922078 0  0.4140603937012541 0.05211333372716105 0  0.5535864501303013 0.3060591985391672 0  0.6560130086346878 0.2729726562211558 0  0.890203140221684 0.5948314305427268 0  0.7043857725999024 0.593980890020804 0  0.5105843922695152 0.8016828014338627 0  0.05365910753708378 0.7315110031682004 0  0.616904573672261 0.4621186633436136 0  0.5338511646455415 0.387875898899613 0  0.5231769258947843 0.4477682463140762 0  0.650302973237622 0.7370722302085519 0  0.3927483139621257 0.4662414504529014 0  0.8034595960585199 0.4972538342758211 0  0.7738337841682438 0.9496376207663251 0  0.7193737507158268 0.954685447650112 0  0.482525916480686 0.5528257169991676 0  0.2533501157346781 0.2809495420003238 0  0.3118487924482243 0.5702930126570319 0  0.6257598847669529 0.4104163315430518 0  0.1354166666666667 0.1955605158730158 0  0.04166666666666666 0.15625 0  0.3956448985530264 0.6174149462065157 0  0.8102897701818546 0.3938784238208349 0  0.2641154190013625 0.8344469561943118 0  0.642852220770013 0.5068794586563659 0  0.05271458179508221 0.355846947336007 0  0.7021551360070266 0.8921457280225779 0  0.5692125776683765 0.1328512638850284 0  0.5206162811937602 0.04865158770992991 0  0.6001838442201555 0.04540556991297563 0  0.2597716608242787 0.4118346398477178 0  0.4040584599473195 0.3179589136784675 0  0.1480337679295207 0.8941560631483065 0  0.1344356707112281 0.9466251177415842 0  0.7114696411829317 0.4983917389078826 0  0.7585704698442475 0.5751926345944629 0  0.2189131956390871 0.04022068508159698 0  0.2476935455192043 0.1123642267635843 0  0.185995005654517 0.1365524537205238 0  0.6223414373308711 0.643380839165121 0  0.5732602596637543 0.7190051747306219 0  0.268358222364537 0.6586246524467934 0  0.3265879848129173 0.2369791782191225 0  0.1267095595787346 0.7034787238999181 0  0.1115202922226038 0.6421997933884982 0  0.3128688392940203 0.07260997451790079 0  0.550724900485678 0.9253360991633187 0  0.7142608810459105 0.2384904702214873 0  0.7045869185243887 0.1871826897887429 0  0.890625 0.734375 0  0.953125 0.765625 0  0.2111812642821677 0.8286209446459138 0  0.9590293078204457 0.09375 0  0.953431269039847 0.1435719386408004 0  0.04097069217955424 0.90625 0  0.04656873096015299 0.8564280613591996 0  0.1078743037981226 0.8541621766048062 0  0.8921256962018773 0.1458378233951939 0  0.8521576979194619 0.1084496634207678 0  0.8655663982740958 0.05464346096571447 0  0.04005659640905543 0.09375 0  0.1001448316533417 0.04246776244228261 
[...]
<CellData  Vectors="f_8394-1"> 
<DataArray  type="Float64"  Name="f_8394-1"  NumberOfComponents="3" format="ascii">2.2538754980346452e-05  2.4846253473919218e-05 0.0000000000000000e+00  2.5552555191774819e-05  1.7737219502370710e-05 0.0000000000000000e+00  1.0886080242471449e-05  1.8329358551783923e-05 0.0000000000000000e+00  1.3529055249086512e-05  2.2304053075169485e-05 0.0000000000000000e+00  2.2446226234025913e-05  2.8868975731116779e-05 0.0000000000000000e+00  2.3216485961619367e-05  3.4312301343453201e-05 0.0000000000000000e+00  3.1972041814131901e-05  2.7641260234370933e-05 0.0000000000000000e+00  7.4740150480697814e-06  5.3898135421995427e-05 0.0000000000000000e+00  4.2508391501020811e-05  1.9558501639563054e-05 0.0000000000000000e+00  2.2722369492734840e-05  -6.1375511780324387e-07 0.0000000000000000e+00  1.9351078056130856e-05  2.0713093622756632e-05 0.0000000000000000e+00  2.5188059901720919e-05  3.1504856267487289e-05 0.0000000000000000e+00  2.0731633666683414e-05  4.0697858220182021e-05 0.0000000000000000e+00  3.4100948275404301e-05  2.2788474552739352e-05 0.0000000000000000e+00  4.2842512819056731e-05  1.7584233109181761e-05 0.0000000000000000e+00  4.1584429948114234e-05  2.1049581174716833e-05 0.0000000000000000e+00  2.5539958991802707e-05  2.7678553743733831e-05 0.0000000000000000e+00  1.8901320669881034e-05  2.8811203924815015e-05 0.0000000000000000e+00  1.6513724374760637e-05  4.3604654217278249e-05 0.0000000000000000e+00  2.4988291169168029e-05  2.4979668611393535e-05 0.0000000000000000e+00  2.3035596373338187e-05  2.2756405556913776e-05 0.0000000000000000e+00  3.6165625836655540e-05  1.7148174972412419e-05 0.0000000000000000e+00  4.2316626620700721e-05  1.2926818438169568e-05 0.0000000000000000e+00  1.0175594660877452e-05  3.6444982917665214e-05 0.0000000000000000e+00  8.5251236137668908e-06  3.0571451923989254e-05 0.0000000000000000e+00  1.2876092067917365e-05  5.3502580046693169e-05 0.0000000000000000e+00  9.8696858771380114e-06  4.4882470869366035e-05 0.0000000000000000e+00  4.4166321525070217e-05  2.1150358731216291e-05 0.0000000000000000e+00  4.2703982230893194e-06  5.3649028463512222e-05 0.0000000000000000e+00  1.7773020176420766e-05  6.6870875365699587e-06 0.0000000000000000e+00  5.0930251315059917e-05  1.3269369066136338e-05 0.0000000000000000e+00  1.1851763431227471e-05  2.6551155548309795e-05 0.0000000000000000e+00  7.7031533385964596e-06  1.8505243350041103e-05 0.0000000000000000e+00  2.2681326084686537e-05  3.6452254936003497e-05 0.0000000000000000e+00  2.8494744773048171e-05  6.7307399128368700e-06 0.0000000000000000e+00  5.1080108072015095e-05  2.1418969808129654e-05 0.0000000000000000e+00  2.8775391498069960e-05  3.6003280745324070e-05 0.0000000000000000e+00  1.8615327622688152e-05  3.5938492651955852e-05 0.0000000000000000e+00  1.7660762503816347e-05  2.9124010063275392e-05 0.0000000000000000e+00  2.6648494615080304e-05  1.2846644286076451e-05 0.0000000000000000e+00  2.8056954450718784e-05  1.0656638083608990e-05 0.0000000000000000e+00  2.5110141502984120e-05  2.3954672570300026e-05 0.0000000000000000e+00  3.8857549248526493e-05  1.7610948856000135e-05 0.0000000000000000e+00  4.2949136497452350e-05  1.6883870211553808e-05 0.0000000000000000e+00  1.5689758022691483e-05  1.4978679465284836e-05 0.0000000000000000e+00  4.6146357901991872e-05  2.1933979771112855e-05 0.0000000000000000e+00  3.9066974475767720e-05  1.6046253692472339e-05 0.0000000000000000e+00  1.8142185032157158e-05  3.7939755344300132e-05 0.0000000000000000e+00  3.9854973117719944e-05  2.6885991341077991e-05 0.0000000000000000e+00  4.0698706319998639e-05  2.4123798947027517e-05 0.0000000000000000e+00  3.0348425709735101e-05  3.2358677818603184e-05 0.0000000000000000e+00  3.1679953763141591e-05  3.4925104856060055e-05 0.0000000000000000e+00  2.9299124276901960e-05  3.6169467344041123e-05 0.0000000000000000e+00  5.4719822141635074e-05  1.9012905113704459e-05 0.0000000000000000e+00  2.2833744497957593e-05  1.9345837400651278e-05 0.0000000000000000e+00  2.6705563394715811e-05  2.8194131701652993e-05 0.0000000000000000e+00  2.5458525736403795e-05  2.2300256188567336e-05 0.0000000000000000e+00  2.0858014080675823e-05  4.5132150734962998e-05 0.0000000000000000e+00  2.1655635745006171e-05  1.1970504210278083e-05 0.0000000000000000e+00  1.9011963111608733e-05  5.4851432826617274e-05 0.0000000000000000e+00  4.6249036221081256e-06  4.7891403772195338e-05 0.0000000000000000e+00  4.0153793441131218e-05  3.5828589342064648e-05 0.0000000000000000e+00  3.1030614193877248e-05  2.8923488629545562e-05 0.0000000000000000e+00  2.1210549419258517e-05  3.0077586488227195e-05 0.0000000000000000e+00  4.2516826156124961e-05  2.9928755356361486e-05 0.0000000000000000e+00  3.4567144096839444e-05  7.3696792497922176e-06 0.0000000000000000e+00  1.5741864669410112e-05  4.2918340326638152e-05 0.0000000000000000e+00  4.9520652491100342e-05  1.8149722337999990e-05 0.0000000000000000e+00  6.5795712400091949e-06  4.9104997270239516e-05 0.0000000000000000e+00  1.3971208716973806e-05  4.8270765426351801e-05 0.0000000000000000e+00  1.6236308733744694e-05  4.6195589569506470e-05 0.0000000000000000e+00  3.9655708247679633e-05  1.9947263335983211e-05 0.0000000000000000e+00  4.1954819458570734e-05  1.6726265076272468e-05 0.0000000000000000e+00  8.1555369517300738e-06  3.0103054029175678e-05 0.0000000000000000e+00  1.8881576159626259e-05  3.3697964065485387e-05 0.0000000000000000e+00  1.3967953423733310e-05  4.2858756190433034e-05 0.0000000000000000e+00  1.5864252896710317e-05  3.7437356869415476e-05 0.0000000000000000e+00  2.3205765769249303e-05  3.4934841371948696e-05 0.0000000000000000e+00  1.8615766999270358e-05  4.4014118946095096e-05 0.0000000000000000e+00  2.2149546774654579e-05  1.6932209743538730e-05 0.0000000000000000e+00  1.8976155379451597e-05  1.3566715176421341e-05 0.0000000000000000e+00  1.3211322902532301e-05  1.9289322015026184e-05 0.0000000000000000e+00  1.4983746109861165e-05  2.6802363822931209e-05 0.0000000000000000e+00  2.8396207933908738e-06  5.5767944826261930e-05 0.0000000000000000e+00  5.3624687103911982e-05  1.2327248025818453e-05 0.0000000000000000e+00  2.5492985085513902e-05  1.9692414727540200e-05 0.0000000000000000e+00  3.7388641389898443e-05  1.8992604179195969e-05 0.0000000000000000e+00  4.7560414229821375e-05  5.7561456944499928e-06 0.0000000000000000e+00  4.2861302090662823e-05  2.2479137181687206e-05 0.0000000000000000e+00  2.7121739064016387e-05  2.7937877754696875e-05 0.0000000000000000e+00  5.2541855896373263e-05  2.2536558553571792e-05 0.0000000000000000e+00  3.0483661426938349e-05  1.8173244990750485e-05 0.0000000000000000e+00  2.4035349835699715e-05  2.0328760701463307e-06 0.0000000000000000e+00  1.2575894375907609e-05  -6.6354535718400454e-08 0.0000000000000000e+00  2.4736180177250729e-05  2.6751564167265231e-05 0.0000000000000000e+00  2.8193614184280914e-05  3.3924457648125914e-05 0.0000000000000000e+00  2.3845058928627941e-05  1.9225630078695903e-05 0.0000000000000000e+00  2.7195191091981394e-05  4.1985284251468729e-05 0.0000000000000000e+00  2.5039842641297615e-05  3.7879070042473084e-05 0.0000000000000000e+00  1.8878371682161954e-05  4.8081668004967784e-05 0.0000000000000000e+00  3.0853098386919177e-06  3.9648587699886292e-05 0.0000000000000000e+00  1.2280248536965525e-05  3.1108668101200429e-05 0.0000000000000000e+00  3.6006182400371432e-05  2.1421394049940705e-05 0.0000000000000000e+00  2.9468371173332300e-05  2.4429448017989728e-05 0.0000000000000000e+00  3.2843186267182360e-05  1.7577393636260548e-05 0.0000000000000000e+00  3.3411253062285471e-05  5.8556127460243486e-06 0.0000000000000000e+00  3.5995650791789873e-05  2.0431717396244140e-05 0.0000000000000000e+00  2.9600611443213685e-05  2.5489084158455025e-05 0.0000000000000000e+00  2.1239812824103941e-05  1.8221292910082454e-05 0.0000000000000000e+00  1.8174354251469341e-05  3.8862531291377017e-05 0.0000000000000000e+00  2.1585276319987522e-05  4.8171271406986292e-05 0.0000000000000000e+00  5.6372728039993074e-05  8.9158166083408100e-06 0.0000000000000000e+00  5.6670636723072980e-05  1.4531388359856247e-05 0.0000000000000000e+00  3.7735926793734012e-05  1.8562113394067603e-05 0.0000000000000000e+00  3.9323943810387011e-05  1.0614799076819379e-05 0.0000000000000000e+00  2.0882914249360443e-05  3.2264917244902395e-05 0.0000000000000000e+00  2.0536248030035337e-05  3.3263276048914572e-05 0.0000000000000000e+00  5.7681961982436369e-05  1.1852779261676342e-05 0.0000000000000000e+00  3.5083263080975837e-05  2.1540465507138012e-05 0.0000000000000000e+00  3.0476258369749794e-05  2.4366585241529775e-05 0.0000000000000000e+00  1.4021616188398784e-05  4.5692481968627127e-05 0.0000000000000000e+00  1.3837746291180068e-05  4.7717088998867857e-05 0.0000000000000000e+00  2.4762106151520958e-05  9.2412536447007816e-06 0.0000000000000000e+00  2.0306789157623355e-05  2.1316265623383698e-05 0.0000000000000000e+00  2.4315229524632526e-05  1.7507015777705175e-05 0.0000000000000000e+00  3.6350243039448378e-05  3.4027526398269190e-05 0.0000000000000000e+00  4.3971393560179932e-05  1.2763622794513687e-05 0.0000000000000000e+00  4.5298638864536955e-05  1.5318219161876897e-05 0.0000000000000000e+00  1.3569590174293103e-05  5.0140952012733618e-05 0.0000000000000000e+00  1.6043166192150454e-05  2.8032282841551428e-05 0.0000000000000000e+00  1.9894390354373625e-05  2.2058381350803601e-05 0.0000000000000000e+00  2.7201774932714700e-05  1.5937751625174643e-05 0.0000000000000000e+00  1.7434228848564610e-05  3.9173613802789593e-05 0.0000000000000000e+00  1.6702877324921191e-05  4.1764748394505061e-05 0.0000000000000000e+00  1.1028936679360541e-05  5.0279882206829728e-05 0.0000000000000000e+00  1.0894755775720471e-05  4.9983504767225223e-05 0.0000000000000000e+00  2.2334538965752812e-05  2.2075379402463112e-05 0.0000000000000000e+00  2.5320767954518111e-05  3.5568690942867552e-05 0.0000000000000000e+00  2.5567463268421957e-05  2.5372877644975090e-05 0.0000000000000000e+00  3.1612959785106102e-05  1.3997775406834773e-05 0.0000000000000000e+00  1.2480015102796178e-05  2.5638682799138269e-05 0.0000000000000000e+00  2.3286292841044918e-05  3.7953976864353580e-07 0.0000000000000000e+00  1.8565015982913594e-05  5.2157340506760809e-06 0.0000000000000000e+00  3.9361877418783210e-05  -3.2467905001169975e-06 0.0000000000000000e+00  2.6811580873899285e-05  2.3792255989694156e-05 0.0000000000000000e+00  2.1137569494751620e-05  1.7490973349857708e-05 0.0000000000000000e+00  4.3283688070545228e-05  2.1106930165223332e-05 0.0000000000000000e+00  3.6885079445268198e-05  1.9806639956196871e-05 0.0000000000000000e+00  2.0965515398362250e-05  3.7848010797530643e-05 0.0000000000000000e+00  2.2496790448329220e-05  4.2647146590834849e-05 0.0000000000000000e+00  1.0606138225083807e-05  4.1518857944192636e-05 0.0000000000000000e+00  3.1022162600864504e-05  3.4804170552899929e-05 0.0000000000000000e+00  2.2589502804032039e-05  -4.9533447205964229e-07 0.0000000000000000e+00  1.6692476335881951e-05  7.4786368098801349e-06 0.0000000000000000e+00  1.6704190645646705e-05  1.7662213268840005e-05 0.0000000000000000e+00  1.8337543827850984e-05  1.7595796630246558e-05 0.0000000000000000e+00  2.2286850649126635e-05  2.6277141189595937e-05 0.0000000000000000e+00  1.8312505124165582e-05  7.5390973836071319e-06 0.0000000000000000e+00  3.5341693966935660e-05  3.0429477987803661e-05 0.0000000000000000e+00  3.1662361157798325e-05  3.3676212262243739e-05 0.0000000000000000e+00  1.5360523376321569e-05  2.7783020754236659e-05 0.0000000000000000e+00  2.7889006752862555e-05  1.9584355713339112e-05 0.0000000000000000e+00  2.0561927937312647e-05  2.3652798692050722e-05 0.0000000000000000e+00  5.0501362148676861e-05  1.0198342991028960e-05 0.0000000000000000e+00  4.3300818579903956e-05  1.8162585258148951e-05 0.0000000000000000e+00  2.7081358216810876e-05  2.8057516131788512e-05 0.0000000000000000e+00  2.6709417665861269e-05  2.8231516470541069e-05 0.0000000000000000e+00  2.8567180287315712e-05  1.9666761668228401e-05 0.0000000000000000e+00  2.9754147322358492e-05  2.2087076874785621e-05 0.0000000000000000e+00  4.7017239271157311e-05  2.5798632230920485e-05 0.0000000000000000e+00  2.3520398715311030e-05  1.5201835866251838e-05 0.0000000000000000e+00  1.3922271917851664e-05  4.7666451245353333e-05 0.0000000000000000e+00  7.9737159834304448e-06  5.7026531908402231e-05 0.0000000000000000e+00  3.4998697844932908e-05  3.7972829412104049e-05 0.0000000000000000e+00  3.0558608653016403e-05  3.4569590110762021e-05 0.0000000000000000e+00  1.8527744430222453e-05  1.7047993014225462e-05 0.0000000000000000e+00  1.0618985944888029e-05  3.1114032626438173e-05 0.0000000000000000e+00  2.7287662647434772e-05  1.3555325417493162e-05 0.0000000000000000e+00  3.9722470207264987e-05  2.4841647951271842e-05 0.0000000000000000e+00  3.6236652691428211e-05  3.1472764289740552e-05 0.0000000000000000e+00  3.1268743708001575e-05  3.7131812921351566e-05 0.0000000000000000e+00  1.4088372725679766e-05  2.0527982354122088e-05 0.0000000000000000e+00  1.4960473525251207e-05  2.1470717545819426e-05 0.0000000000000000e+00  1.3583129054039629e-05  4.8708877245973713e-05 0.0000000000000000e+00  1.8472215805579453e-05  4.6448925144451356e-05 0.0000000000000000e+00  2.1447520757183279e-05  4.2734149874320956e-05 0.0000000000000000e+00  1.8578981582521798e-05  4.5482710843848433e-05 0.0000000000000000e+00  3.4074138075790933e-05  1.2404357147248460e-05 0.0000000000000000e+00  3.5273572715201936e-05  3.6386883587674531e-05 0.0000000000000000e+00  3.8569160607232818e-05  4.1118454084177725e-05 0.0000000000000000e+00  2.6357386298432795e-05  2.0329548834350303e-05 0.0000000000000000e+00  2.0396049484492837e-05  2.3833968277998034e-05 0.0000000000000000e+00  2.5143197577088333e-05  1.9449047738539534e-05 0.0000000000000000e+00  1.8638117432542267e-05  1.6107440787359619e-05 0.0000000000000000e+00  2.1001069680902512e-05  2.1797603231390188e-05 0.0000000000000000e+00  1.9731981449691359e-05  2.5794597216277924e-05 0.0000000000000000e+00  3.6036404354783521e-05  4.0697663002894149e-05 0.0000000000000000e+00  1.9926933607782156e-05  2.4674630994705486e-05 0.0000000000000000e+00  1.8403800148715460e-05  3.6404627441897191e-05 0.0000000000000000e+00  1.1511724357808014e-05  3.5334836410890930e-05 0.0000000000000000e+00  1.7957808041539978e-05  3.4487859618630649e-05 0.0000000000000000e+00  1.2833053152940647e-05  3.7034989986855085e-05 0.0000000000000000e+00  3.7543979347314843e-05  1.2272311965668757e-05 0.0000000000000000e+00  2.4151497840775284e-05  1.7386589383656760e-05 0.0000000000000000e+00  1.7375870752693140e-05  2.8733594872280918e-05 0.0000000000000000e+00  2.5958104191446592e-05  3.1154511946613906e-05 0.0000000000000000e+00  2.7060039131455236e-05  1.2984201381884927e-05 0.0000000000000000e+00  3.8261160609025643e-06  2.6733402250413676e-05 0.0000000000000000e+00  5.6763714863914382e-06  1.9680253485205958e-05 0.0000000000000000e+00  3.4663948234014817e-05  4.7736990379943859e-05 0.0000000000000000e+00  4.5028014945746480e-05  2.8120297341637327e-05 0.0000000000000000e+00  2.0728965552716596e-05  4.4709965325565145e-05 0.0000000000000000e+00  2.7096702742698200e-05  5.4920345450621650e-05 0.0000000000000000e+00  2.0042623032003601e-05  4.5758894292084469e-05 0.0000000000000000e+00  1.0095401739699852e-05  3.0751252110916525e-05 0.0000000000000000e+00  4.4203771637367593e-05  2.2880651011258933e-05 0.0000000000000000e+00  4.2074517257002100e-05  2.4602609740806446e-05 0.0000000000000000e+00  4.0844038013916055e-05  2.1646704743010605e-05 0.0000000000000000e+00  3.1328497622944257e-05  3.3340442083215517e-05 0.0000000000000000e+00  2.5728755366654922e-05  4.4310882785984993e-05 0.0000000000000000e+00  2.3932679050014881e-05  3.9574088375719297e-05 0.0000000000000000e+00  2.3628366926092264e-05  1.6916877695868321e-05 0.0000000000000000e+00  3.4716237122556336e-05  1.5949017440505429e-05 0.0000000000000000e+00  5.7428302149327137e-05  3.2617302888813541e-06 0.0000000000000000e+00  3.2618425905737136e-05  2.0972349879767650e-05 0.0000000000000000e+00  2.1119793813093335e-05  2.1373985891854829e-05 0.0000000000000000e+00  3.9296646072340447e-05  2.6213652922219361e-05 0.0000000000000000e+00  3.8067836697459248e-05  2.3057911699327279e-05 0.0000000000000000e+00  3.0340607274197062e-05  3.2314925424592103e-05 0.0000000000000000e+00  3.1314890759341917e-05  2.9697097267694469e-05 0.0000000000000000e+00  1.3544827586474074e-05  3.0093996581661312e-05 0.0000000000000000e+00  4.7411523645827685e-05  2.9615176421165637e-05 0.0000000000000000e+00  2.6130711037799936e-07  3.6949552714619029e-05 0.0000000000000000e+00  8.5239394233766910e-06  3.7436231799375368e-05 0.0000000000000000e+00  4.8539686198738562e-05  1.4077677841314343e-05 0.0000000000000000e+00  4.8185562978551141e-05  6.4796401134696331e-06 0.0000000000000000e+00  5.5384490928244180e-05  1.5234008231999211e-05 0.0000000000000000e+00  3.5774115831929701e-05  2.2088652535708933e-07 0.0000000000000000e+00  3.0037108328880684e-05  1.5292385215806260e-05 0.0000000000000000e+00  2.2835308285290153e-05  2.1412022989217881e-05 0.0000000000000000e+00  3.5901563789735791e-05  1.1361740567721494e-05 0.0000000000000000e+00  3.7026936105788873e-05  3.0693329512253982e-05 0.0000000000000000e+00  1.7726692356556692e-05  3.9398313290552143e-05 0.0000000000000000e+00  2.2452197100196723e-05  3.8574339834520178e-05 0.0000000000000000e+00  4.8265047801054266e-05  9.0026925092181415e-06 0.0000000000000000e+00  5.3111205606709474e-05  1.9685988426857000e-05 0.0000000000000000e+00  6.8519261710544755e-05  3.5476405166913700e-06 0.0000000000000000e+00  1.9850945178781384e-05  5.6420750407961246e-05 0.0000000000000000e+00  2.4002182214626314e-06  5.9000277210516610e-05 0.0000000000000000e+00  3.9505608156332180e-05  2.9102882800046566e-05 0.0000000000000000e+00  2.1434641324022973e-05  3.0450513886939829e-05 0.0000000000000000e+00  2.3555533664755355e-05  -6.3004395310669573e-06 0.0000000000000000e+00  2.3272962639701086e-05  1.7878021374236461e-05 0.0000000000000000e+00  3.5685775084188510e-05  4.8670607621361319e-06 0.0000000000000000e+00  2.2584607314984421e-05  3.7909112637066529e-05 0.0000000000000000e+00  1.1622111741897849e-05  5.5102423631522597e-05 0.0000000000000000e+00  1.4150892639443031e-08  2.2150194034848064e-05 0.0000000000000000e+00  1.3587273878254948e-05  4.1163329249600083e-05 0.0000000000000000e+00  1.0857522461317553e-05  9.2797988171233415e-06 0.0000000000000000e+00  2.7685195573488428e-05  2.3294234252980428e-05 0.0000000000000000e+00  2.8143674596657840e-05  2.4324083999294340e-05 0.0000000000000000e+00  2.6826448408124732e-05  -3.2033940427223907e-06 0.0000000000000000e+00  2.7087385692467114e-05  -2.4170916770855142e-06 0.0000000000000000e+00  2.6016559988419550e-05  5.2617440070281310e-05 0.0000000000000000e+00  3.4925588524247546e-05  2.5860664100730577e-05 0.0000000000000000e+00  3.0783727058085639e-05  2.9351393394126401e-05 0.0000000000000000e+00  2.5054349456588152e-05  1.9218968153314708e-05 0.0000000000000000e+00  1.0358991353353916e-05  1.9065239514819034e-05 0.0000000000000000e+00  2.0997314253571400e-05  2.4292040929893139e-05 0.0000000000000000e+00  2.9956812796060941e-05  1.4757713409477099e-05 0.0000000000000000e+00  1.6189408482589947e-05  2.6234404340495652e-05 0.0000000000000000e+00  6.8072453599582303e-06  1.5603260217815180e-05 0.0000000000000000e+00  3.1096259898412499e-05  2.8298492133706649e-05 0.0000000000000000e+00  1.6266775768957533e-05  2.5361514394216550e-05 0.0000000000000000e+00  1.9263455859902335e-05  3.9030654777735088e-05 0.0000000000000000e+00  1.4394542868079706e-05  4.0561417399183352e-05 0.0000000000000000e+00  1.4454350767694241e-05  2.4548210382664468e-05 0.0000000000000000e+00  1.7259308050923832e-05  3.2951186098249417e-05 0.0000000000000000e+00  1.5032321362486997e-05  4.8423415224656301e-05 0.0000000000000000e+00  1.2911440744967160e-05  5.1184566546897344e-05 0.0000000000000000e+00