<?xml version="1.0"?>
<VTKFile type="UnstructuredGrid"  version="0.1"  >
<UnstructuredGrid>
<Piece  NumberOfPoints="1385" NumberOfCells="2640">
<Points>
<DataArray  type="Float64"  NumberOfComponents="3"  format="ascii">0 0 0  1 0 0  1 1 0  0 1 0  0.5 0 0  1 0.5 0  0.5 1 0  0 0.5 0  0.5 0.5 0  0 0.25 0  0.25 0 0  0.25 1 0  0 0.75 0  1 0.25 0  0.75 0 0  1 0.75 0  0.75 1 0  0.7083333333333333 0.2916666666666667 0  0.2916666666666666 0.7083333333333334 0  0.375 0.25 0  0.75 0.625 0  0.2569444444444444 0.4652777777777778 0  0.5366379310344828 0.7535919540229885 0  0.1875 0.1875 0  0.8125 0.8125 0  0.869047619047619 0.375 0  0.1450441919191919 0.6052714646464646 0  0.375 0.8690476190476191 0  0.5526960784313725 0.1825980392156862 0  0.8385416666666666 0.1614583333333334 0  0.1614583333333333 0.8385416666666667 0  0.6736111111111112 0.4652777777777778 0  0.1367521367521368 0.3477564102564102 0  0.6570970491253563 0.8648656830417855 0  0.5102479397556124 0.3386260301221938 0  0.3654513888888889 0.5737847222222222 0  0.6929750044954185 0.1362784921584263 0  0.388576102743835 0.411911725237599 0  0.6091269841269842 0.5942460317460317 0  0.875 0.6875 0  0.427278890279516 0.119889445139758 0  0.8544456845238095 0.5213913690476191 0  0.125 0 0  0 0.125 0  1 0.875 0  0.875 1 0  0.1280008648150532 0.4769292340226777 0  0.2695382451711197 0.3321750950221553 0  0.7031567235715964 0.7447810921428012 0  0.625 0 0  0.375 0 0  0.125 1 0  0.875 0 0  0 0.375 0  0 0.625 0  1 0.375 0  0.375 1 0  1 0.125 0  0 0.875 0  0.625 1 0  1 0.625 0  0.2979288363930608 0.1201429454643536 0  0.410919540229885 0.7484605911330049 0  0.5325041980395562 0.878905151526474 0  0.4831670727569156 0.6331060043826487 0  0.1735997378973042 0.7204747378973043 0  0.2534919507575758 0.5772372159090909 0  0.2633928571428572 0.8876488095238095 0  0.8199404761904761 0.2730654761904762 0  0.75830270586982 0.3919383189517417 0  0.5750282248382511 0.4237522353023667 0  0.6008360210023379 0.2794828358598495 0  0.08163442644334186 0.6821295860397322 0  0.08333333333333333 0.1875 0  0.2028380815996574 0.08844602719988583 0  0.2766521142611967 0.2325436572164097 0  0.90625 0.78125 0  0.890625 0.890625 0  0.7545696325008384 0.8973565441669461 0  0.5625 0.08086590340834317 0  0.09077380952380953 0.09077380952380952 0  0.4610923478694773 0.209034015149656 0  0.7542527598351648 0.5248380520595106 0  0.6459235536037465 0.3619913988405765 0  0.7560381768882634 0.20506142233852 0  0.07073252688172042 0.8125 0  0.0924753097241701 0.9078102849914793 0  0.9292674731182795 0.1875 0  0.9075246902758297 0.09218971500852073 0  0.8125 0.07073252688172045 0  0.2400955776842301 0.7869705776842302 0  0.9121050213379069 0.2781978201831695 0  0.7916878157143976 0.7239689078571988 0  0.9345238095238094 0.4375 0  0.4375 0.9345238095238095 0  0.3725616989755203 0.6651895248862173 0  0.06536271996350887 0.5625 0  0.9348362560379583 0.5625 0  0.456646798987055 0.8277247094351965 0  0.1875 0.9355758238725954 0  0.6169761231634859 0.6939779188977889 0  0.6226854751147515 0.7827911461419014 0  0.3305695598137626 0.7901697871282585 0  0.5865305325818898 0.5101085479043448 0  0.6622701297028378 0.2177663989757395 0  0.1354166666666667 0.2591702279202279 0  0 0.3125 0  0.2094429575680048 0.3936361846162499 0  0.836666296419157 0.607917407161686 0  0.6875 1 0  0.214261555450504 0.6492551722020035 0  0 0.4375 0  0.07731537126068377 0.40625 0  0.3427725432967068 0.4879566233699599 0  0.3550792513951871 0.3331953632609953 0  0.4462473953896857 0.2887834789342508 0  0.4747801464819794 0.417386052030127 0  0.8229836475148948 0.4443292349237342 0  0.7322605135514757 0.8199240278289671 0  0.6756431877205955 0.5468989748126787 0  0.1968419507215863 0.5194573482612496 0  0.3285590277777778 0.9345238095238095 0  0.8125 1 0  0.4198917601920009 0.5134893045331258 0  0.5232405503206691 0.2595791787880157 0  1 0.9375 0  0.1987510870015086 0.3025185951894431 0  0.5625 1 0  0.6005390654136388 0.9228110509230952 0  0.6411254848194414 0.07704872765442942 0  0.3357233162523242 0.1855113224530532 0  0.6730653396610877 0.6393887462324165 0  0.310966987234063 0.6240019765311626 0  0.7368737836204349 0.07457755202327881 0  0.6192316414418171 0.1485238406378594 0  0.5432429670607106 0.678552703844006 0  0.4754371679695679 0.7103946803120881 0  0.07501324890749672 0.3043839897335739 0  0.5358146975860403 0.5688321463205916 0  0.3115271739500156 0.3982137365971444 0  0.3625191397122174 0.0767854603650549 0  0.5024029442563831 0.1264128223758444 0  0.4375 0 0  0.4699946908887376 0.06379961173775725 0  0.9375 0.71875 0  0.9272105898044465 0.635671179608893 0  0.9375 1 0  0.6690971819568612 0.9331530898202766 0  0.1073454944778885 0.7499206387638554 0  0.8699082999280406 0.2232403652524313 0  0.5773118091863964 0.3548027349159383 0  0.1354166666666667 0.1428571428571428 0  0.3125 0 0  0.8241684193077341 0.9257452995055244 0  0.4352314948354036 0.3586940847489378 0  0.4351301473778832 0.5819726043539077 0  0.8073232928518163 0.3419398170341962 0  0.7775949246947366 0.1298519409204575 0  0.6875 0 0  0.7413513991851041 0.457933324954483 0  0.939453125 0.841796875 0  0.5630355154606987 0.8171875156478349 0  0.9345238095238095 0.3461466592368577 0  0.9375 0 0  1 0.0625 0  0.0625 1 0  0 0.9375 0  0.06552178593177167 0.4969053669623468 0  0.1424866619031703 0.4130277709291224 0  0.1275287182444726 0.5422946908002588 0  0.2637686595586339 0.06413888464529549 0  0.2524263535491086 0.1697437503243817 0  0.7367218397988525 0.6888573970660841 0  0.0625 0 0  0 0.0625 0  0.8463594539285995 0.7578283617857982 0  0.3128751192101563 0.2851997374369947 0  0.4015281788351144 0.1806421385113692 0  0.1910251795116588 0.4553332197174453 0  0.287797471442006 0.5222621440543902 0  0.3962628745986055 0.8097380085535307 0  0.3505895299554843 0.7304878890838692 0  0.5019151500495276 0.9356042615328103 0  0.9374389419410134 0.4999931039076005 0  0.3125 1 0  0.1875 1 0  1 0.5625 0  0.4375 1 0  1 0.3125 0  1 0.4375 0  0.8125 0 0  1 0.1875 0  0.5625 0 0  0.1875 0 0  0 0.1875 0  0 0.5625 0  0 0.6875 0  0 0.8125 0  1 0.6875 0  1 0.8125 0  0.8021696218581627 0.6612893947866073 0  0.06154922295426143 0.6239401126946708 0  0.9359375 0.9359375 0  0.4666158024849896 0.7691515918155014 0  0.2318201265217025 0.7064974250277525 0  0.1565954253579966 0.6635489312486841 0  0.1598132503680848 0.7787147500325552 0  0.3146529991605639 0.8510876378205265 0  0.1461873209418733 0.05982804528877814 0  0.06109554988524315 0.2446551776247686 0  0.8054950308560754 0.5564226538848541 0  0.470541749491976 0.8853316336952531 0  0.6948472567465137 0.4042308563372457 0  0.8802828472348889 0.4658893256343853 0  0.6788075634946739 0.7974194205806069 0  0.2155048659603867 0.2428201584940968 0  0.8131223143423806 0.2132171049028394 0  0.4330798005432235 0.6671274900735726 0  0.6015279126162613 0.2187368078743274 0  0.8061636571464289 0.8703766630361714 0  0.7008230445061776 0.3478568388444072 0  0.8638466246958771 0.3147095987735538 0  0.204801534004265 0.8789209409594009 0  0.2449006736431132 0.9424182882803838 0  0.7611268409371427 0.2643056884799992 0  0.7552800864046191 0.7678006649959446 0  0.5983639638906616 0.864113435029236 0  0.1956559506814437 0.577281203577426 0  0.3527670268164207 0.1320469097565204 0  0.7530364577483248 0.3262386077083089 0  0.4535919187979363 0.4690107087451527 0  0.8824869791666666 0.8336588541666666 0  0.8814453125 0.9451171875 0  0.5582987942628019 0.622421666543858 0  0.6817532446064828 0.6939001801354731 0  0.3830295138888889 0.9450968952922078 0  0.4140603937012541 0.05211333372716105 0  0.5535864501303013 0.3060591985391672 0  0.6560130086346878 0.2729726562211558 0  0.890203140221684 0.5948314305427268 0  0.7043857725999024 0.593980890020804 0  0.5105843922695152 0.8016828014338627 0  0.05365910753708378 0.7315110031682004 0  0.616904573672261 0.4621186633436136 0  0.5338511646455415 0.387875898899613 0  0.5231769258947843 0.4477682463140762 0  0.650302973237622 0.7370722302085519 0  0.3927483139621257 0.4662414504529014 0  0.8034595960585199 0.4972538342758211 0  0.7738337841682438 0.9496376207663251 0  0.7193737507158268 0.954685447650112 0  0.482525916480686 0.5528257169991676 0  0.2533501157346781 0.2809495420003238 0  0.3118487924482243 0.5702930126570319 0  0.6257598847669529 0.4104163315430518 0  0.1354166666666667 0.1955605158730158 0  0.04166666666666666 0.15625 0  0.3956448985530264 0.6174149462065157 0  0.8102897701818546 0.3938784238208349 0  0.2641154190013625 0.8344469561943118 0  0.642852220770013 0.5068794586563659 0  0.05271458179508221 0.355846947336007 0  0.7021551360070266 0.8921457280225779 0  0.5692125776683765 0.1328512638850284 0  0.5206162811937602 0.04865158770992991 0  0.6001838442201555 0.04540556991297563 0  0.2597716608242787 0.4118346398477178 0  0.4040584599473195 0.3179589136784675 0  0.1480337679295207 0.8941560631483065 0  0.1344356707112281 0.9466251177415842 0  0.7114696411829317 0.4983917389078826 0  0.7585704698442475 0.5751926345944629 0  0.2189131956390871 0.04022068508159698 0  0.2476935455192043 0.1123642267635843 0  0.185995005654517 0.1365524537205238 0  0.6223414373308711 0.643380839165121 0  0.5732602596637543 0.7190051747306219 0  0.268358222364537 0.6586246524467934 0  0.3265879848129173 0.2369791782191225 0  0.1267095595787346 0.7034787238999181 0  0.1115202922226038 0.6421997933884982 0  0.3128688392940203 0.07260997451790079 0  0.550724900485678 0.9253360991633187 0  0.7142608810459105 0.2384904702214873 0  0.7045869185243887 0.1871826897887429 0  0.890625 0.734375 0  0.953125 0.765625 0  0.2111812642821677 0.8286209446459138 0  0.9590293078204457 0.09375 0  0.953431269039847 0.1435719386408004 0  0.04097069217955424 0.90625 0  0.04656873096015299 0.8564280613591996 0  0.1078743037981226 0.8541621766048062 0  0.8921256962018773 0.1458378233951939 0  0.8521576979194619 0.1084496634207678 0  0.8655663982740958 0.05464346096571447 0  0.04005659640905543 0.09375 0  0.1001448316533417 0.04246776244228261 
[...]
<CellData  Vectors="f_8394-1"> 
<DataArray  type="Float64"  Name="f_8394-1"  NumberOfComponents="3" format="ascii">1.7941058824092566e-04  1.4955348982246866e-04 0.0000000000000000e+00  3.8509852254541563e-05  7.0714988710977078e-05 0.0000000000000000e+00  5.5279376001198090e-05  6.4754428738862186e-05 0.0000000000000000e+00  2.4257347594242660e-05  2.7872499817987434e-05 0.0000000000000000e+00  7.8396840663439034e-05  1.5398637742988343e-04 0.0000000000000000e+00  6.1948830511603971e-05  5.0267981788956447e-05 0.0000000000000000e+00  3.6629622182240981e-05  4.9329564432081170e-04 0.0000000000000000e+00  3.7280494481378494e-05  7.0084641531066127e-04 0.0000000000000000e+00  6.0042422748994746e-04  2.1143120511432828e-05 0.0000000000000000e+00  2.7082600084634854e-04  1.2893068643151496e-05 0.0000000000000000e+00  1.0933125751509258e-04  3.9818977996376250e-05 0.0000000000000000e+00  4.2818053829656423e-04  5.1229408740824888e-04 0.0000000000000000e+00  3.3735722694614822e-04  6.3141413787764112e-04 0.0000000000000000e+00  4.9559398604572609e-04  3.6202353296117140e-04 0.0000000000000000e+00  6.1923750834570713e-04  2.8868962569949668e-04 0.0000000000000000e+00  5.2776900304096666e-04  1.9262475583496535e-04 0.0000000000000000e+00  3.6411926981433867e-04  4.0478592704244591e-04 0.0000000000000000e+00  1.5954176435219422e-04  1.7864720843487582e-04 0.0000000000000000e+00  8.4930931923504486e-05  4.3761398870470686e-04 0.0000000000000000e+00  2.5147772001498167e-04  7.6978565766127585e-05 0.0000000000000000e+00  2.6952015333848994e-04  4.5984649084545978e-05 0.0000000000000000e+00  4.8821882631476624e-04  1.8091050163398584e-04 0.0000000000000000e+00  5.3653995937720403e-04  1.7187666626277762e-04 0.0000000000000000e+00  6.5681620491657495e-05  4.8301803352858604e-04 0.0000000000000000e+00  9.0951812002504004e-05  2.3242431668068670e-04 0.0000000000000000e+00  1.1386304994710548e-04  5.6381768657639555e-04 0.0000000000000000e+00  7.6667838375005970e-06  4.2150382932054319e-05 0.0000000000000000e+00  4.3444316087689174e-04  4.2543458402019532e-05 0.0000000000000000e+00  3.8485411069500733e-05  6.8752953033367876e-04 0.0000000000000000e+00  2.5883458337164152e-04  2.6439862703839978e-05 0.0000000000000000e+00  5.8798625313034457e-04  8.2032998910097478e-05 0.0000000000000000e+00  2.3745220549740322e-04  3.2923646357809134e-04 0.0000000000000000e+00  2.5030210778601583e-04  1.2104194489221232e-04 0.0000000000000000e+00  3.6107022791726678e-04  5.7479036516713670e-04 0.0000000000000000e+00  1.1707425537737562e-04  4.4614479581458262e-05 0.0000000000000000e+00  1.4402847282622968e-04  8.8511587037621347e-05 0.0000000000000000e+00  1.7463812278675019e-04  2.4056226040937930e-04 0.0000000000000000e+00  8.9873902230341190e-05  5.0517144422477503e-04 0.0000000000000000e+00  3.8227561854400259e-04  3.0498777379088397e-05 0.0000000000000000e+00  1.5307676915558290e-04  1.5071959280080948e-04 0.0000000000000000e+00  1.4713930537598840e-04  1.4326565002468193e-04 0.0000000000000000e+00  2.6233979652155460e-04  1.5012669611724568e-04 0.0000000000000000e+00  5.6819287832660364e-04  2.6226594159438490e-04 0.0000000000000000e+00  6.2087705019434373e-04  2.7526432216247150e-04 0.0000000000000000e+00  9.1028225006700077e-05  1.7692283716089284e-05 0.0000000000000000e+00  7.3737964393176623e-04  3.6333137301810398e-04 0.0000000000000000e+00  5.2386455338656766e-04  2.6351168598846175e-04 0.0000000000000000e+00  5.2502768837995072e-05  3.8345361185453595e-05 0.0000000000000000e+00  7.1793333535595104e-04  5.3571051002419964e-04 0.0000000000000000e+00  6.8448420953075913e-04  4.2722486405528715e-04 0.0000000000000000e+00  5.9334905984905720e-04  5.6054734838190438e-04 0.0000000000000000e+00  6.6116769144081372e-04  6.3370160376912180e-04 0.0000000000000000e+00  7.3548919101327904e-05  2.6820966616543010e-04 0.0000000000000000e+00  1.3674465767739052e-04  8.2105625204273187e-05 0.0000000000000000e+00  7.4946514303979311e-05  1.5355067456949333e-04 0.0000000000000000e+00  4.4615973471270897e-04  4.4994024666043661e-04 0.0000000000000000e+00  3.5282088926065068e-04  3.2157050868401106e-04 0.0000000000000000e+00  3.3442093501075820e-04  5.4213440660829059e-05 0.0000000000000000e+00  1.2927514519083709e-04  2.6696267465180900e-05 0.0000000000000000e+00  2.8596336773588554e-05  6.2183428699685113e-04 0.0000000000000000e+00  3.3957604857109156e-05  6.0783600322193839e-04 0.0000000000000000e+00  5.5707667420565841e-04  3.6445073964539769e-05 0.0000000000000000e+00  3.0212925365876717e-05  1.1825424071635848e-04 0.0000000000000000e+00  3.5863861596479355e-05  2.8694367783078592e-04 0.0000000000000000e+00  4.2162217259296586e-05  3.1189409485104613e-04 0.0000000000000000e+00  5.1708999214580245e-04  1.0434016401099838e-04 0.0000000000000000e+00  7.0298421736117867e-05  4.7025950776207110e-04 0.0000000000000000e+00  6.5067754846915942e-04  2.0744495967239564e-05 0.0000000000000000e+00  3.1857102245913257e-05  6.8365658172638770e-04 0.0000000000000000e+00  2.3045693888906947e-04  7.3124790194237048e-04 0.0000000000000000e+00  2.5002778471139487e-04  6.7610735653429938e-04 0.0000000000000000e+00  5.9605361702618354e-04  3.3773947795231660e-04 0.0000000000000000e+00  6.3789854723036172e-05  8.5917872032828703e-05 0.0000000000000000e+00  1.7534380340481395e-04  2.7549192483200535e-04 0.0000000000000000e+00  2.9369066464083232e-04  3.9938633686012199e-04 0.0000000000000000e+00  1.6362976351336770e-04  5.4162639625834604e-04 0.0000000000000000e+00  2.3893717697685428e-04  5.4840950248540661e-04 0.0000000000000000e+00  2.2923704540486463e-04  3.7143653982207127e-04 0.0000000000000000e+00  1.7833556206775923e-04  4.6692534459466799e-04 0.0000000000000000e+00  2.7440532220750346e-05  3.6895076570700084e-04 0.0000000000000000e+00  2.6138000524168405e-05  2.9132019302420228e-04 0.0000000000000000e+00  2.9642290340767265e-05  2.5960888353517990e-04 0.0000000000000000e+00  7.3036936789085374e-05  2.1961372026172479e-04 0.0000000000000000e+00  5.2629721651552711e-05  7.0987981256859776e-04 0.0000000000000000e+00  6.1641659158446398e-04  7.8706751283821980e-05 0.0000000000000000e+00  4.0270218559682671e-04  4.9037911283899528e-05 0.0000000000000000e+00  3.8205724143783841e-04  1.3276478332112693e-04 0.0000000000000000e+00  5.8605413522192494e-04  1.1254623334727907e-04 0.0000000000000000e+00  3.7556520598545196e-04  1.9412469510526182e-04 0.0000000000000000e+00  2.3411978124287725e-04  1.6449207152504486e-04 0.0000000000000000e+00  3.2722293991775057e-04  4.5857393583326823e-05 0.0000000000000000e+00  3.0388992474908959e-04  9.0505013334335685e-05 0.0000000000000000e+00  2.3741002865706145e-05  4.6080568645288313e-05 0.0000000000000000e+00  3.3429106217016907e-05  8.9971373990874642e-06 0.0000000000000000e+00  5.9221063710556641e-05  6.0898926016988708e-05 0.0000000000000000e+00  9.1989684802809419e-05  5.4221694808799899e-05 0.0000000000000000e+00  1.2096961732498218e-04  3.4934654148875016e-05 0.0000000000000000e+00  4.5509959953705714e-04  7.2776645244616834e-04 0.0000000000000000e+00  4.4302769413341462e-04  6.6804969238201586e-04 0.0000000000000000e+00  2.0993395537171423e-04  5.3461388605562641e-05 0.0000000000000000e+00  1.7259100998867378e-04  4.2624942687636126e-05 0.0000000000000000e+00  1.8726142992439411e-04  8.7248539558507034e-05 0.0000000000000000e+00  1.7684274766836686e-04  5.8950074310673916e-05 0.0000000000000000e+00  3.7061362667613356e-04  2.8881443743188545e-04 0.0000000000000000e+00  3.5945819707663268e-04  2.4401289110169433e-04 0.0000000000000000e+00  4.7537218009847270e-04  1.2703424574829705e-04 0.0000000000000000e+00  3.6893286822192766e-04  1.6916275863500864e-04 0.0000000000000000e+00  4.1032115304274813e-04  6.0290656483818086e-05 0.0000000000000000e+00  3.4855664457137157e-04  3.3688239987769329e-05 0.0000000000000000e+00  2.1786439291016372e-05  5.9177197601587841e-04 0.0000000000000000e+00  3.2642274754400787e-05  5.9686958459249841e-04 0.0000000000000000e+00  6.8339456760366669e-04  2.2903101731983220e-05 0.0000000000000000e+00  6.5575248638182415e-04  5.0597861687297542e-05 0.0000000000000000e+00  5.0861741279021753e-04  2.2055139531301509e-05 0.0000000000000000e+00  4.8904189080748426e-04  1.2288030228548187e-05 0.0000000000000000e+00  4.3133827150256588e-05  4.9143516283138523e-04 0.0000000000000000e+00  8.1865827463657045e-05  3.6060082620914286e-04 0.0000000000000000e+00  6.7498936157069350e-04  7.6910758053725756e-05 0.0000000000000000e+00  5.5940232267521009e-04  3.6929464373971978e-04 0.0000000000000000e+00  4.7931100979580545e-04  4.2834542738579050e-04 0.0000000000000000e+00  2.0800523022631001e-04  5.8405800554798529e-04 0.0000000000000000e+00  2.0420258657929976e-04  6.8276317828690506e-04 0.0000000000000000e+00  6.6067998197814800e-05  2.6416684186907725e-04 0.0000000000000000e+00  1.2251209341167403e-04  3.1421592610431933e-04 0.0000000000000000e+00  2.5353881199692489e-05  2.4104841890431412e-04 0.0000000000000000e+00  4.2639323834691718e-05  2.4604256947320050e-04 0.0000000000000000e+00  6.3221945811566850e-04  2.0364417512022963e-04 0.0000000000000000e+00  6.7981464140527063e-04  2.4861049962527460e-04 0.0000000000000000e+00  1.6823522033621239e-04  6.3823607557940811e-04 0.0000000000000000e+00  1.6932649565367170e-04  3.7152756929918253e-04 0.0000000000000000e+00  2.6173750520686777e-04  2.9369770717649503e-04 0.0000000000000000e+00  2.9812421673837349e-04  2.7289433435490030e-04 0.0000000000000000e+00  2.7778100236417348e-04  5.8261151522032888e-04 0.0000000000000000e+00  2.4855922648326490e-04  5.6853695383764951e-04 0.0000000000000000e+00  1.2834150747350123e-04  5.7231993623714842e-04 0.0000000000000000e+00  1.5449141142776017e-04  6.3911122924737796e-04 0.0000000000000000e+00  3.3691885004948833e-04  3.1324578936539914e-04 0.0000000000000000e+00  2.1832214306248730e-04  3.3356439612364328e-04 0.0000000000000000e+00  3.8191218367078050e-04  4.8254392385801588e-05 0.0000000000000000e+00  4.1494056938036846e-04  6.9167322882544727e-05 0.0000000000000000e+00  4.1400193177786298e-05  6.2268074615466645e-05 0.0000000000000000e+00  3.4485724901793532e-05  4.0296667812678314e-05 0.0000000000000000e+00  2.1128781826885369e-05  9.0913683748849249e-05 0.0000000000000000e+00  3.8697025734232432e-05  5.9983881152678646e-05 0.0000000000000000e+00  4.1782780542082466e-05  2.2648456854632842e-04 0.0000000000000000e+00  5.4779320344117218e-05  1.4131503944243281e-04 0.0000000000000000e+00  6.7432556604098961e-04  3.4481724115905608e-04 0.0000000000000000e+00  5.2449249804454299e-04  3.0508957386356385e-04 0.0000000000000000e+00  3.3764923685363917e-04  5.8459856976301734e-04 0.0000000000000000e+00  3.7464855184445923e-04  6.8791237915318871e-04 0.0000000000000000e+00  5.4243930668625440e-05  3.9959716820524776e-04 0.0000000000000000e+00  6.6121512211394067e-05  3.4323893803305428e-04 0.0000000000000000e+00  2.2287279078063849e-05  1.5893994090064367e-04 0.0000000000000000e+00  1.7470928082586857e-05  9.7884708771852231e-05 0.0000000000000000e+00  2.7479945923890675e-05  1.3519561643291161e-04 0.0000000000000000e+00  8.7648827953100433e-05  2.2367430897789916e-04 0.0000000000000000e+00  1.1124768842785501e-04  1.7484448393310304e-04 0.0000000000000000e+00  1.9981153115916734e-04  4.6312364027827440e-05 0.0000000000000000e+00  1.9157006043414525e-04  1.1359036375742044e-04 0.0000000000000000e+00  1.3628066337075431e-04  1.8720321176443172e-04 0.0000000000000000e+00  1.2730126515743306e-04  1.0458847626992192e-04 0.0000000000000000e+00  2.3771487453941084e-04  1.4356348919029134e-04 0.0000000000000000e+00  2.1551979979113518e-04  2.2258833775721813e-04 0.0000000000000000e+00  6.2303024939167593e-04  1.6213588549925909e-04 0.0000000000000000e+00  5.0942601027889449e-04  1.9317385114516749e-04 0.0000000000000000e+00  4.7079875733124733e-04  4.6935290629623492e-04 0.0000000000000000e+00  4.3821039032339093e-04  4.8829492542842889e-04 0.0000000000000000e+00  3.8145905243650003e-04  2.5550075374259875e-04 0.0000000000000000e+00  2.9999637137592162e-04  1.8384309210007591e-04 0.0000000000000000e+00  6.0308450722074056e-05  1.7912855821053861e-04 0.0000000000000000e+00  5.9279422700864131e-05  1.1979039148298601e-04 0.0000000000000000e+00  1.2624735142468968e-04  6.0436795529124094e-04 0.0000000000000000e+00  9.0865119072683562e-05  7.4655362614699271e-04 0.0000000000000000e+00  6.2857734152689819e-04  7.7522331025695285e-04 0.0000000000000000e+00  5.9276140187527636e-04  6.9040951062153779e-04 0.0000000000000000e+00  2.0010865701886033e-04  2.3258175048358897e-04 0.0000000000000000e+00  1.7034120333869060e-04  2.9095163164536363e-04 0.0000000000000000e+00  3.6820449751270704e-04  6.5564229433312543e-05 0.0000000000000000e+00  2.4310322962636016e-04  7.8527106884112172e-05 0.0000000000000000e+00  6.9447166953562030e-04  6.6689349323636668e-04 0.0000000000000000e+00  6.4898695550914332e-04  6.7122911203004580e-04 0.0000000000000000e+00  3.8485266518368229e-05  1.0229162451085533e-04 0.0000000000000000e+00  2.8494873905839677e-05  1.1948448324334556e-04 0.0000000000000000e+00  2.0912728530644197e-04  7.2460084626786226e-04 0.0000000000000000e+00  2.9667639617010134e-04  7.3164914128219473e-04 0.0000000000000000e+00  3.4633852628449875e-04  6.7752659528139906e-04 0.0000000000000000e+00  2.9895659543414542e-04  7.0987493779990488e-04 0.0000000000000000e+00  4.3672834945918565e-04  2.2850362943573504e-05 0.0000000000000000e+00  1.4335823419684760e-04  5.8597570630560349e-05 0.0000000000000000e+00  1.5134766965002955e-04  5.8968762950462046e-05 0.0000000000000000e+00  3.6515287816466982e-04  3.1180305033142456e-04 0.0000000000000000e+00  3.5525387151737263e-04  3.5105748714635228e-04 0.0000000000000000e+00  8.6347884204392896e-05  3.0754520180178936e-04 0.0000000000000000e+00  7.0806340605283384e-05  3.0297110461367067e-04 0.0000000000000000e+00  3.8884744360113336e-04  2.1329433458342955e-05 0.0000000000000000e+00  3.8953125326875811e-04  3.0834435357822407e-05 0.0000000000000000e+00  3.3507562527741107e-04  5.0277461594264019e-05 0.0000000000000000e+00  3.2414275484957887e-04  4.8326776767489873e-05 0.0000000000000000e+00  1.9097520847287763e-04  4.6116865123815360e-04 0.0000000000000000e+00  1.7732867536960186e-04  3.5400542609105340e-04 0.0000000000000000e+00  1.5287360058993541e-04  3.4972299224231111e-04 0.0000000000000000e+00  1.7597283246270181e-04  3.9534790310011915e-04 0.0000000000000000e+00  4.0065120111224274e-05  4.8248558686223216e-05 0.0000000000000000e+00  3.9237874614015804e-05  1.0766527925023899e-04 0.0000000000000000e+00  2.7064625626115415e-04  2.5204557986764175e-04 0.0000000000000000e+00  3.0223035111562915e-04  2.5892689719503022e-04 0.0000000000000000e+00  1.3825511037080955e-04  1.4945846050343610e-04 0.0000000000000000e+00  5.4331394854998970e-05  1.7856467701906533e-04 0.0000000000000000e+00  1.4627216492553013e-04  1.9225807980236587e-05 0.0000000000000000e+00  2.1187278743978665e-04  5.3788341480857399e-05 0.0000000000000000e+00  2.1739129095629131e-04  3.7155026704238768e-05 0.0000000000000000e+00  1.7758431629502506e-04  4.7500976538167539e-05 0.0000000000000000e+00  1.2851622562355374e-04  5.9554464229895376e-05 0.0000000000000000e+00  1.7297885660350006e-04  4.5314206465816456e-05 0.0000000000000000e+00  1.4353092570869899e-04  3.0561394353617863e-05 0.0000000000000000e+00  6.9986278794367004e-04  3.7294896639347404e-04 0.0000000000000000e+00  7.0038828183800175e-04  4.3333674477199677e-04 0.0000000000000000e+00  6.4831066255548989e-04  3.6281310381158121e-04 0.0000000000000000e+00  6.7192708769302613e-04  6.7682903466230796e-04 0.0000000000000000e+00  4.2760143215319366e-04  7.4702032353767868e-04 0.0000000000000000e+00  2.7752813421011623e-05  4.4661422079016839e-04 0.0000000000000000e+00  2.7805222302953659e-05  4.5439864305201795e-04 0.0000000000000000e+00  5.4832671425687817e-04  6.2718740662232180e-05 0.0000000000000000e+00  6.7867678172353629e-04  5.0907622299492026e-05 0.0000000000000000e+00  2.7783103587132656e-04  1.6599381216062724e-04 0.0000000000000000e+00  1.6467111221800084e-04  1.2595007713281229e-04 0.0000000000000000e+00  5.7229282022024410e-05  3.3026486288500067e-05 0.0000000000000000e+00  3.7851982294446617e-05  5.0734447219883067e-05 0.0000000000000000e+00  5.5055087840099573e-04  5.7084191773891860e-04 0.0000000000000000e+00  6.2902967451705356e-04  5.7732839938443210e-04 0.0000000000000000e+00  1.2708800018051310e-04  1.0023856694395413e-04 0.0000000000000000e+00  1.8265600598779263e-04  9.0847681060133954e-05 0.0000000000000000e+00  9.1528547157199264e-05  4.2051910705152992e-04 0.0000000000000000e+00  1.0775276446223884e-04  3.0387909389456748e-04 0.0000000000000000e+00  5.3101633961484302e-04  6.5620457287145933e-05 0.0000000000000000e+00  5.9746380746565804e-04  8.8939660888881568e-05 0.0000000000000000e+00  6.1094568499153322e-04  3.4616754479143165e-05 0.0000000000000000e+00  4.5257541630930022e-04  2.7057258695876907e-05 0.0000000000000000e+00  3.8147759817917039e-04  1.4944079946769953e-05 0.0000000000000000e+00  3.9603287768967446e-04  1.8313942229816949e-04 0.0000000000000000e+00  4.5104543360232734e-04  1.0071897228244072e-04 0.0000000000000000e+00  6.8244109914873208e-04  5.8739663507832403e-04 0.0000000000000000e+00  2.2646940456220134e-04  5.5424429578827946e-04 0.0000000000000000e+00  2.0845706969936084e-04  4.3296413116785884e-04 0.0000000000000000e+00  6.6739023818452410e-04  1.3106361669553920e-04 0.0000000000000000e+00  6.1162450372650448e-04  1.5952013614502325e-04 0.0000000000000000e+00  8.0328684172289425e-04  5.0394465964631089e-06 0.0000000000000000e+00  1.9485796976815598e-05  6.9761443551226334e-04 0.0000000000000000e+00  6.8962401228067250e-06  7.9942825829802644e-04 0.0000000000000000e+00  3.9480671498565074e-05  1.5579743557779714e-04 0.0000000000000000e+00  2.2499603063379327e-05  2.3110402925019503e-04 0.0000000000000000e+00  2.3737835123659659e-05  1.6047772510249214e-04 0.0000000000000000e+00  2.9929762220918744e-05  1.2314065095628228e-04 0.0000000000000000e+00  6.6689586193200722e-05  1.8211910418119206e-04 0.0000000000000000e+00  5.5965910595309873e-05  2.7096078377603658e-04 0.0000000000000000e+00  7.7192430991075378e-05  5.4540182540444352e-05 0.0000000000000000e+00  6.7551950510989881e-05  2.1730492215856517e-05 0.0000000000000000e+00  4.7837830851285961e-05  5.3085537657984917e-05 0.0000000000000000e+00  6.3808549102910408e-05  2.7868619454273224e-05 0.0000000000000000e+00  3.9852369219013764e-04  3.8959824486836447e-04 0.0000000000000000e+00  4.5542571389122491e-04  3.7716721281251509e-04 0.0000000000000000e+00  2.6002261528021664e-05  -2.3248601552371738e-06 0.0000000000000000e+00  2.6830622421670881e-05  1.6771205448810712e-06 0.0000000000000000e+00  2.5265144936664178e-05  5.0621028438777594e-05 0.0000000000000000e+00  6.2347669212543116e-04  4.8481532190599474e-04 0.0000000000000000e+00  5.8044957860909729e-04  5.7181075357298761e-04 0.0000000000000000e+00  8.7732792096123060e-05  7.8009590357886469e-05 0.0000000000000000e+00  5.9641066152804806e-05  6.1573529874326018e-05 0.0000000000000000e+00  1.1555660112601922e-04  3.7481976897325785e-05 0.0000000000000000e+00  2.2636586696280357e-04  3.4039304303332882e-05 0.0000000000000000e+00  9.1458041901778099e-05  1.7230805943827199e-04 0.0000000000000000e+00  4.4931832940534126e-05  2.2351915758764024e-04 0.0000000000000000e+00  7.3948349629350324e-05  2.4180422733083683e-04 0.0000000000000000e+00  9.3925475352135712e-05  2.3459897622376942e-04 0.0000000000000000e+00  1.0891533491445336e-04  5.2084487885811206e-04 0.0000000000000000e+00  1.4480477164072390e-04  5.2704473848285522e-04 0.0000000000000000e+00  1.2333647446835947e-04  3.6743700818454107e-04 0.0000000000000000e+00  1.0566150177328266e-04  4.5087109345622809e-04 0.0000000000000000e+00  2.4073515409773035e-04  7.4423050286694364e-04 0.0000000000000000e+00  2.0034476341393876e-04  7.8528935972298241e-04 0.0000000000000000e+00  7.30