<?xml version="1.0"?>
<VTKFile type="UnstructuredGrid"  version="0.1"  >
<UnstructuredGrid>
<Piece  NumberOfPoints="1385" NumberOfCells="2640">
<Points>
<DataArray  type="Float64"  NumberOfComponents="3"  format="ascii">0 0 0  1 0 0  1 1 0  0 1 0  0.5 0 0  1 0.5 0  0.5 1 0  0 0.5 0  0.5 0.5 0  0 0.25 0  0.25 0 0  0.25 1 0  0 0.75 0  1 0.25 0  0.75 0 0  1 0.75 0  0.75 1 0  0.7083333333333333 0.2916666666666667 0  0.2916666666666666 0.7083333333333334 0  0.375 0.25 0  0.75 0.625 0  0.2569444444444444 0.4652777777777778 0  0.5366379310344828 0.7535919540229885 0  0.1875 0.1875 0  0.8125 0.8125 0  0.869047619047619 0.375 0  0.1450441919191919 0.6052714646464646 0  0.375 0.8690476190476191 0  0.5526960784313725 0.1825980392156862 0  0.8385416666666666 0.1614583333333334 0  0.1614583333333333 0.8385416666666667 0  0.6736111111111112 0.4652777777777778 0  0.1367521367521368 0.3477564102564102 0  0.6570970491253563 0.8648656830417855 0  0.5102479397556124 0.3386260301221938 0  0.3654513888888889 0.5737847222222222 0  0.6929750044954185 0.1362784921584263 0  0.388576102743835 0.411911725237599 0  0.6091269841269842 0.5942460317460317 0  0.875 0.6875 0  0.427278890279516 0.119889445139758 0  0.8544456845238095 0.5213913690476191 0  0.125 0 0  0 0.125 0  1 0.875 0  0.875 1 0  0.1280008648150532 0.4769292340226777 0  0.2695382451711197 0.3321750950221553 0  0.7031567235715964 0.7447810921428012 0  0.625 0 0  0.375 0 0  0.125 1 0  0.875 0 0  0 0.375 0  0 0.625 0  1 0.375 0  0.375 1 0  1 0.125 0  0 0.875 0  0.625 1 0  1 0.625 0  0.2979288363930608 0.1201429454643536 0  0.410919540229885 0.7484605911330049 0  0.5325041980395562 0.878905151526474 0  0.4831670727569156 0.6331060043826487 0  0.1735997378973042 0.7204747378973043 0  0.2534919507575758 0.5772372159090909 0  0.2633928571428572 0.8876488095238095 0  0.8199404761904761 0.2730654761904762 0  0.75830270586982 0.3919383189517417 0  0.5750282248382511 0.4237522353023667 0  0.6008360210023379 0.2794828358598495 0  0.08163442644334186 0.6821295860397322 0  0.08333333333333333 0.1875 0  0.2028380815996574 0.08844602719988583 0  0.2766521142611967 0.2325436572164097 0  0.90625 0.78125 0  0.890625 0.890625 0  0.7545696325008384 0.8973565441669461 0  0.5625 0.08086590340834317 0  0.09077380952380953 0.09077380952380952 0  0.4610923478694773 0.209034015149656 0  0.7542527598351648 0.5248380520595106 0  0.6459235536037465 0.3619913988405765 0  0.7560381768882634 0.20506142233852 0  0.07073252688172042 0.8125 0  0.0924753097241701 0.9078102849914793 0  0.9292674731182795 0.1875 0  0.9075246902758297 0.09218971500852073 0  0.8125 0.07073252688172045 0  0.2400955776842301 0.7869705776842302 0  0.9121050213379069 0.2781978201831695 0  0.7916878157143976 0.7239689078571988 0  0.9345238095238094 0.4375 0  0.4375 0.9345238095238095 0  0.3725616989755203 0.6651895248862173 0  0.06536271996350887 0.5625 0  0.9348362560379583 0.5625 0  0.456646798987055 0.8277247094351965 0  0.1875 0.9355758238725954 0  0.6169761231634859 0.6939779188977889 0  0.6226854751147515 0.7827911461419014 0  0.3305695598137626 0.7901697871282585 0  0.5865305325818898 0.5101085479043448 0  0.6622701297028378 0.2177663989757395 0  0.1354166666666667 0.2591702279202279 0  0 0.3125 0  0.2094429575680048 0.3936361846162499 0  0.836666296419157 0.607917407161686 0  0.6875 1 0  0.214261555450504 0.6492551722020035 0  0 0.4375 0  0.07731537126068377 0.40625 0  0.3427725432967068 0.4879566233699599 0  0.3550792513951871 0.3331953632609953 0  0.4462473953896857 0.2887834789342508 0  0.4747801464819794 0.417386052030127 0  0.8229836475148948 0.4443292349237342 0  0.7322605135514757 0.8199240278289671 0  0.6756431877205955 0.5468989748126787 0  0.1968419507215863 0.5194573482612496 0  0.3285590277777778 0.9345238095238095 0  0.8125 1 0  0.4198917601920009 0.5134893045331258 0  0.5232405503206691 0.2595791787880157 0  1 0.9375 0  0.1987510870015086 0.3025185951894431 0  0.5625 1 0  0.6005390654136388 0.9228110509230952 0  0.6411254848194414 0.07704872765442942 0  0.3357233162523242 0.1855113224530532 0  0.6730653396610877 0.6393887462324165 0  0.310966987234063 0.6240019765311626 0  0.7368737836204349 0.07457755202327881 0  0.6192316414418171 0.1485238406378594 0  0.5432429670607106 0.678552703844006 0  0.4754371679695679 0.7103946803120881 0  0.07501324890749672 0.3043839897335739 0  0.5358146975860403 0.5688321463205916 0  0.3115271739500156 0.3982137365971444 0  0.3625191397122174 0.0767854603650549 0  0.5024029442563831 0.1264128223758444 0  0.4375 0 0  0.4699946908887376 0.06379961173775725 0  0.9375 0.71875 0  0.9272105898044465 0.635671179608893 0  0.9375 1 0  0.6690971819568612 0.9331530898202766 0  0.1073454944778885 0.7499206387638554 0  0.8699082999280406 0.2232403652524313 0  0.5773118091863964 0.3548027349159383 0  0.1354166666666667 0.1428571428571428 0  0.3125 0 0  0.8241684193077341 0.9257452995055244 0  0.4352314948354036 0.3586940847489378 0  0.4351301473778832 0.5819726043539077 0  0.8073232928518163 0.3419398170341962 0  0.7775949246947366 0.1298519409204575 0  0.6875 0 0  0.7413513991851041 0.457933324954483 0  0.939453125 0.841796875 0  0.5630355154606987 0.8171875156478349 0  0.9345238095238095 0.3461466592368577 0  0.9375 0 0  1 0.0625 0  0.0625 1 0  0 0.9375 0  0.06552178593177167 0.4969053669623468 0  0.1424866619031703 0.4130277709291224 0  0.1275287182444726 0.5422946908002588 0  0.2637686595586339 0.06413888464529549 0  0.2524263535491086 0.1697437503243817 0  0.7367218397988525 0.6888573970660841 0  0.0625 0 0  0 0.0625 0  0.8463594539285995 0.7578283617857982 0  0.3128751192101563 0.2851997374369947 0  0.4015281788351144 0.1806421385113692 0  0.1910251795116588 0.4553332197174453 0  0.287797471442006 0.5222621440543902 0  0.3962628745986055 0.8097380085535307 0  0.3505895299554843 0.7304878890838692 0  0.5019151500495276 0.9356042615328103 0  0.9374389419410134 0.4999931039076005 0  0.3125 1 0  0.1875 1 0  1 0.5625 0  0.4375 1 0  1 0.3125 0  1 0.4375 0  0.8125 0 0  1 0.1875 0  0.5625 0 0  0.1875 0 0  0 0.1875 0  0 0.5625 0  0 0.6875 0  0 0.8125 0  1 0.6875 0  1 0.8125 0  0.8021696218581627 0.6612893947866073 0  0.06154922295426143 0.6239401126946708 0  0.9359375 0.9359375 0  0.4666158024849896 0.7691515918155014 0  0.2318201265217025 0.7064974250277525 0  0.1565954253579966 0.6635489312486841 0  0.1598132503680848 0.7787147500325552 0  0.3146529991605639 0.8510876378205265 0  0.1461873209418733 0.05982804528877814 0  0.06109554988524315 0.2446551776247686 0  0.8054950308560754 0.5564226538848541 0  0.470541749491976 0.8853316336952531 0  0.6948472567465137 0.4042308563372457 0  0.8802828472348889 0.4658893256343853 0  0.6788075634946739 0.7974194205806069 0  0.2155048659603867 0.2428201584940968 0  0.8131223143423806 0.2132171049028394 0  0.4330798005432235 0.6671274900735726 0  0.6015279126162613 0.2187368078743274 0  0.8061636571464289 0.8703766630361714 0  0.7008230445061776 0.3478568388444072 0  0.8638466246958771 0.3147095987735538 0  0.204801534004265 0.8789209409594009 0  0.2449006736431132 0.9424182882803838 0  0.7611268409371427 0.2643056884799992 0  0.7552800864046191 0.7678006649959446 0  0.5983639638906616 0.864113435029236 0  0.1956559506814437 0.577281203577426 0  0.3527670268164207 0.1320469097565204 0  0.7530364577483248 0.3262386077083089 0  0.4535919187979363 0.4690107087451527 0  0.8824869791666666 0.8336588541666666 0  0.8814453125 0.9451171875 0  0.5582987942628019 0.622421666543858 0  0.6817532446064828 0.6939001801354731 0  0.3830295138888889 0.9450968952922078 0  0.4140603937012541 0.05211333372716105 0  0.5535864501303013 0.3060591985391672 0  0.6560130086346878 0.2729726562211558 0  0.890203140221684 0.5948314305427268 0  0.7043857725999024 0.593980890020804 0  0.5105843922695152 0.8016828014338627 0  0.05365910753708378 0.7315110031682004 0  0.616904573672261 0.4621186633436136 0  0.5338511646455415 0.387875898899613 0  0.5231769258947843 0.4477682463140762 0  0.650302973237622 0.7370722302085519 0  0.3927483139621257 0.4662414504529014 0  0.8034595960585199 0.4972538342758211 0  0.7738337841682438 0.9496376207663251 0  0.7193737507158268 0.954685447650112 0  0.482525916480686 0.5528257169991676 0  0.2533501157346781 0.2809495420003238 0  0.3118487924482243 0.5702930126570319 0  0.6257598847669529 0.4104163315430518 0  0.1354166666666667 0.1955605158730158 0  0.04166666666666666 0.15625 0  0.3956448985530264 0.6174149462065157 0  0.8102897701818546 0.3938784238208349 0  0.2641154190013625 0.8344469561943118 0  0.642852220770013 0.5068794586563659 0  0.05271458179508221 0.355846947336007 0  0.7021551360070266 0.8921457280225779 0  0.5692125776683765 0.1328512638850284 0  0.5206162811937602 0.04865158770992991 0  0.6001838442201555 0.04540556991297563 0  0.2597716608242787 0.4118346398477178 0  0.4040584599473195 0.3179589136784675 0  0.1480337679295207 0.8941560631483065 0  0.1344356707112281 0.9466251177415842 0  0.7114696411829317 0.4983917389078826 0  0.7585704698442475 0.5751926345944629 0  0.2189131956390871 0.04022068508159698 0  0.2476935455192043 0.1123642267635843 0  0.185995005654517 0.1365524537205238 0  0.6223414373308711 0.643380839165121 0  0.5732602596637543 0.7190051747306219 0  0.268358222364537 0.6586246524467934 0  0.3265879848129173 0.2369791782191225 0  0.1267095595787346 0.7034787238999181 0  0.1115202922226038 0.6421997933884982 0  0.3128688392940203 0.07260997451790079 0  0.550724900485678 0.9253360991633187 0  0.7142608810459105 0.2384904702214873 0  0.7045869185243887 0.1871826897887429 0  0.890625 0.734375 0  0.953125 0.765625 0  0.2111812642821677 0.8286209446459138 0  0.9590293078204457 0.09375 0  0.953431269039847 0.1435719386408004 0  0.04097069217955424 0.90625 0  0.04656873096015299 0.8564280613591996 0  0.1078743037981226 0.8541621766048062 0  0.8921256962018773 0.1458378233951939 0  0.8521576979194619 0.1084496634207678 0  0.8655663982740958 0.05464346096571447 0  0.04005659640905543 0.09375 0  0.1001448316533417 0.04246776244228261 
[...]
<CellData  Vectors="f_8394-1"> 
<DataArray  type="Float64"  Name="f_8394-1"  NumberOfComponents="3" format="ascii">2.3180847727541034e-04  1.9120414502366595e-04 0.0000000000000000e+00  4.3308796469604455e-05  8.8808921354579525e-05 0.0000000000000000e+00  7.0486178667067959e-05  8.0623726495046891e-05 0.0000000000000000e+00  2.8682272348468062e-05  3.0529819641732672e-05 0.0000000000000000e+00  9.7420121154433964e-05  1.9589539521662426e-04 0.0000000000000000e+00  7.5418149105475907e-05  5.6054919990601037e-05 0.0000000000000000e+00  3.8650412781843291e-05  6.4826695257885238e-04 0.0000000000000000e+00  4.7357065130017760e-05  9.1604620723122730e-04 0.0000000000000000e+00  7.8618564122820314e-04  2.2263210648408462e-05 0.0000000000000000e+00  3.5349842963469706e-04  1.7735794512231493e-05 0.0000000000000000e+00  1.3964215245108595e-04  4.6611655067813752e-05 0.0000000000000000e+00  5.6217625219764922e-04  6.7213647271361786e-04 0.0000000000000000e+00  4.4273387666068502e-04  8.2788198249248129e-04 0.0000000000000000e+00  6.4910780711546615e-04  4.7484209357611621e-04 0.0000000000000000e+00  8.1099758550502851e-04  3.7892282011460043e-04 0.0000000000000000e+00  6.8960318383270275e-04  2.4976817287249663e-04 0.0000000000000000e+00  4.7673426939893082e-04  5.3024759469344842e-04 0.0000000000000000e+00  2.0656828701001647e-04  2.2868455503795141e-04 0.0000000000000000e+00  1.0794657541080665e-04  5.6875628430113582e-04 0.0000000000000000e+00  3.2696421275252833e-04  9.4542127553127705e-05 0.0000000000000000e+00  3.5167479317071363e-04  5.3962885405196327e-05 0.0000000000000000e+00  6.3866776438594364e-04  2.3546138413802951e-04 0.0000000000000000e+00  7.0101227267369243e-04  2.2486699040470792e-04 0.0000000000000000e+00  8.4339632266726734e-05  6.3166175992800393e-04 0.0000000000000000e+00  1.1864529018614798e-04  2.9967398112687828e-04 0.0000000000000000e+00  1.4758855136768839e-04  7.3360885111816278e-04 0.0000000000000000e+00  8.4203002635540030e-06  4.2726574800439312e-05 0.0000000000000000e+00  5.6442012584793217e-04  4.9955594502691452e-05 0.0000000000000000e+00  5.0049883172469877e-05  8.9838958835039692e-04 0.0000000000000000e+00  3.3918238166690337e-04  3.3262138917785201e-05 0.0000000000000000e+00  7.6673612324057601e-04  1.0508746395128591e-04 0.0000000000000000e+00  3.1255217762518562e-04  4.2997537213560345e-04 0.0000000000000000e+00  3.3115712001626982e-04  1.5533984940959523e-04 0.0000000000000000e+00  4.7360008560040206e-04  7.5388164852604783e-04 0.0000000000000000e+00  1.4689616778705116e-04  5.7622814544317268e-05 0.0000000000000000e+00  1.7533212202134390e-04  1.1122115087984365e-04 0.0000000000000000e+00  2.2337117485424397e-04  3.0882068248386447e-04 0.0000000000000000e+00  1.1376850408631594e-04  6.6135033280876644e-04 0.0000000000000000e+00  5.0377096262875086e-04  3.1419028478445939e-05 0.0000000000000000e+00  1.9536486738196146e-04  1.9679696924705946e-04 0.0000000000000000e+00  1.8697930571761768e-04  1.8759011421264949e-04 0.0000000000000000e+00  3.4143389801291683e-04  1.9226152417020244e-04 0.0000000000000000e+00  7.4433840530093711e-04  3.4370366487809209e-04 0.0000000000000000e+00  8.1314818116579436e-04  3.6128331239423516e-04 0.0000000000000000e+00  1.1636907439841292e-04  1.9108739504235714e-05 0.0000000000000000e+00  9.6727801744708102e-04  4.7699744744353562e-04 0.0000000000000000e+00  6.8516410003730986e-04  3.4589536227591747e-04 0.0000000000000000e+00  6.4332526927255606e-05  3.9001676942460713e-05 0.0000000000000000e+00  9.4315735010328135e-04  7.0495258336234672e-04 0.0000000000000000e+00  8.9848450935708598e-04  5.6136740841446599e-04 0.0000000000000000e+00  7.8041455305512362e-04  7.3614831662246907e-04 0.0000000000000000e+00  8.7019294279779534e-04  8.3258575935092269e-04 0.0000000000000000e+00  8.8580770430390609e-05  3.4554499677364684e-04 0.0000000000000000e+00  1.6444282242582533e-04  1.0347745952614421e-04 0.0000000000000000e+00  9.2676257700865277e-05  1.9847179459703769e-04 0.0000000000000000e+00  5.8565181276725960e-04  5.9022448544983710e-04 0.0000000000000000e+00  4.6175046876788532e-04  4.2113107260319780e-04 0.0000000000000000e+00  4.3892568957977143e-04  5.7551527519992279e-05 0.0000000000000000e+00  1.6539603169536937e-04  3.2018495224727394e-05 0.0000000000000000e+00  3.2200924721888021e-05  8.1051764438536372e-04 0.0000000000000000e+00  4.4004002325198513e-05  7.9414306903845256e-04 0.0000000000000000e+00  7.2913031313046495e-04  3.7248865105913521e-05 0.0000000000000000e+00  3.0513036945262324e-05  1.4801585847312932e-04 0.0000000000000000e+00  4.1136847144994372e-05  3.7261318108394682e-04 0.0000000000000000e+00  4.2218027137218648e-05  4.0606175441658794e-04 0.0000000000000000e+00  6.7765439609439153e-04  1.3674070882136661e-04 0.0000000000000000e+00  8.8665947884035659e-05  6.1252256595159939e-04 0.0000000000000000e+00  8.5084811155185572e-04  2.2120548561079033e-05 0.0000000000000000e+00  4.0461644657953671e-05  8.9479232321096629e-04 0.0000000000000000e+00  3.0259504504514211e-04  9.5841392756620849e-04 0.0000000000000000e+00  3.2791886747146398e-04  8.8560988065472339e-04 0.0000000000000000e+00  7.8115878240313870e-04  4.4343649652991832e-04 0.0000000000000000e+00  7.1456749292276312e-05  1.0934678234105707e-04 0.0000000000000000e+00  2.3108039740944895e-04  3.5721190707830577e-04 0.0000000000000000e+00  3.8518306766761201e-04  5.2107554086920247e-04 0.0000000000000000e+00  2.1353981683448580e-04  7.0759333760371415e-04 0.0000000000000000e+00  3.1318882350969132e-04  7.1843669492356935e-04 0.0000000000000000e+00  2.9787026496735404e-04  4.8343928340492871e-04 0.0000000000000000e+00  2.3158594832595026e-04  6.0769055770787080e-04 0.0000000000000000e+00  2.9574513883540110e-05  4.8621326581259192e-04 0.0000000000000000e+00  2.8964683513078557e-05  3.8385081612434685e-04 0.0000000000000000e+00  3.5501342740815558e-05  3.3974825037164671e-04 0.0000000000000000e+00  9.2592356916048810e-05  2.8396431818495711e-04 0.0000000000000000e+00  6.9330682051158026e-05  9.2742486290849286e-04 0.0000000000000000e+00  8.0372946562049625e-04  1.0094869278468114e-04 0.0000000000000000e+00  5.2831533699785650e-04  5.9045663799305360e-05 0.0000000000000000e+00  4.9683266960738809e-04  1.7073971953855934e-04 0.0000000000000000e+00  7.6524774373050810e-04  1.4815857679805231e-04 0.0000000000000000e+00  4.8635040243372917e-04  2.5132844538247790e-04 0.0000000000000000e+00  3.0315108882861578e-04  2.1009155549504564e-04 0.0000000000000000e+00  4.1878190581858243e-04  5.3969042323314407e-05 0.0000000000000000e+00  3.9501583909359720e-04  1.1476332582408008e-04 0.0000000000000000e+00  2.4113054213992193e-05  6.1017167040497342e-05 0.0000000000000000e+00  4.1013822984490664e-05  1.2673584569197702e-05 0.0000000000000000e+00  7.1214127683395703e-05  7.2811473232276734e-05 0.0000000000000000e+00  1.1369858864330350e-04  6.1439435288146747e-05 0.0000000000000000e+00  1.5364207536173536e-04  4.0557394472298777e-05 0.0000000000000000e+00  5.9754361094450990e-04  9.5576880312245630e-04 0.0000000000000000e+00  5.8205539932407993e-04  8.7754746964433959e-04 0.0000000000000000e+00  2.7374047621924028e-04  5.5678319884247466e-05 0.0000000000000000e+00  2.2918301069257811e-04  4.4123117962443894e-05 0.0000000000000000e+00  2.4573404677425775e-04  1.0618303192956744e-04 0.0000000000000000e+00  2.2396794406834601e-04  7.1782244682200999e-05 0.0000000000000000e+00  4.8413424358446878e-04  3.7679032772396841e-04 0.0000000000000000e+00  4.6816790591317734e-04  3.1940974776633777e-04 0.0000000000000000e+00  6.2248888057389216e-04  1.6747834711982251e-04 0.0000000000000000e+00  4.7982020915679523e-04  2.1873350111141648e-04 0.0000000000000000e+00  5.3708519046320095e-04  7.2127363457241323e-05 0.0000000000000000e+00  4.5763128422265665e-04  3.9159157248988342e-05 0.0000000000000000e+00  2.3432984880754261e-05  7.7577405090364731e-04 0.0000000000000000e+00  3.6712824480915313e-05  7.7944201504060969e-04 0.0000000000000000e+00  8.9201997532884739e-04  2.7834103822999014e-05 0.0000000000000000e+00  8.5511548421679376e-04  6.2806509368002849e-05 0.0000000000000000e+00  6.6541101046438769e-04  2.3649708617799154e-05 0.0000000000000000e+00  6.3883029804550837e-04  1.3285002565396528e-05 0.0000000000000000e+00  5.0851016997904147e-05  6.4419965420365374e-04 0.0000000000000000e+00  1.0247797588807943e-04  4.6956978973519339e-04 0.0000000000000000e+00  8.8035116211946578e-04  9.8653040195317810e-05 0.0000000000000000e+00  7.3380313639391807e-04  4.8494844014182378e-04 0.0000000000000000e+00  6.2858308471280746e-04  5.6267915927742866e-04 0.0000000000000000e+00  2.7265935850474783e-04  7.6318160862009143e-04 0.0000000000000000e+00  2.6764465462902513e-04  8.9401272002576125e-04 0.0000000000000000e+00  8.0095415277283425e-05  3.4910964907512645e-04 0.0000000000000000e+00  1.5671479422744240e-04  4.1171509503304019e-04 0.0000000000000000e+00  2.6398287729544587e-05  3.1547264841027617e-04 0.0000000000000000e+00  4.5195576722352102e-05  3.1667932407543597e-04 0.0000000000000000e+00  8.2790351831303578e-04  2.6724225580660398e-04 0.0000000000000000e+00  8.9082223280179834e-04  3.2633462825469242e-04 0.0000000000000000e+00  2.1978203120551605e-04  8.3389078167825966e-04 0.0000000000000000e+00  2.2043956008149616e-04  4.8581619914496676e-04 0.0000000000000000e+00  3.4229077479566125e-04  3.8409455995418369e-04 0.0000000000000000e+00  3.8832591501846136e-04  3.5843319363174233e-04 0.0000000000000000e+00  3.6439919641206289e-04  7.6343173176477558e-04 0.0000000000000000e+00  3.2571441484265204e-04  7.4382610374995736e-04 0.0000000000000000e+00  1.6752907899607807e-04  7.4599893349484370e-04 0.0000000000000000e+00  2.0234528068824854e-04  8.3511548062553459e-04 0.0000000000000000e+00  4.4162828731995120e-04  4.1011897780452691e-04 0.0000000000000000e+00  2.8264601101041443e-04  4.3276589405243809e-04 0.0000000000000000e+00  5.0054544087820810e-04  5.6141485280024908e-05 0.0000000000000000e+00  5.4257423540564180e-04  8.7718224180830681e-05 0.0000000000000000e+00  5.1619671319656997e-05  7.4963589596848849e-05 0.0000000000000000e+00  3.8660878370624546e-05  5.4109684545498120e-05 0.0000000000000000e+00  2.2483005493209984e-05  1.1964494663337971e-04 0.0000000000000000e+00  3.8951052286794279e-05  8.1160548667998894e-05 0.0000000000000000e+00  4.7206756049423644e-05  2.9408548242736458e-04 0.0000000000000000e+00  6.6276783008469708e-05  1.8275949688791905e-04 0.0000000000000000e+00  8.8421817166032732e-04  4.5255070826495181e-04 0.0000000000000000e+00  6.8673877760960496e-04  3.9997460734976736e-04 0.0000000000000000e+00  4.4301755548577628e-04  7.6646242925009780e-04 0.0000000000000000e+00  4.9186281394573853e-04  9.0245033543631832e-04 0.0000000000000000e+00  6.9042737050965474e-05  5.1881431388432905e-04 0.0000000000000000e+00  7.8103284526043630e-05  4.4598952071899374e-04 0.0000000000000000e+00  2.2394241807045513e-05  2.1207929395728709e-04 0.0000000000000000e+00  1.8314438413724684e-05  1.2809431488911257e-04 0.0000000000000000e+00  3.1428121765243448e-05  1.7451370173064096e-04 0.0000000000000000e+00  1.1089629642366222e-04  2.9241546811317872e-04 0.0000000000000000e+00  1.4110888946231942e-04  2.2449021669442126e-04 0.0000000000000000e+00  2.6037966285167262e-04  5.9516553791008050e-05 0.0000000000000000e+00  2.4378175767441766e-04  1.4150471936272797e-04 0.0000000000000000e+00  1.7132628884127066e-04  2.3848761361838243e-04 0.0000000000000000e+00  1.6481438661486894e-04  1.3041807787647018e-04 0.0000000000000000e+00  3.0768488886099259e-04  1.8497608915250740e-04 0.0000000000000000e+00  2.8052176340343763e-04  2.8886520614868164e-04 0.0000000000000000e+00  8.1355823082380325e-04  2.1279204403097332e-04 0.0000000000000000e+00  6.6457127873230848e-04  2.5145994814753964e-04 0.0000000000000000e+00  6.1831455995686182e-04  6.1609644238008396e-04 0.0000000000000000e+00  5.7504300200873543e-04  6.4124942820881518e-04 0.0000000000000000e+00  4.9890987654917218e-04  3.3399607435534760e-04 0.0000000000000000e+00  3.8999680179010695e-04  2.3779395980718540e-04 0.0000000000000000e+00  6.5102067949221649e-05  2.3039235896859221e-04 0.0000000000000000e+00  7.1473488743254498e-05  1.5491687044780778e-04 0.0000000000000000e+00  1.6371769315751938e-04  7.8961164778711492e-04 0.0000000000000000e+00  1.1851114755718639e-04  9.7580642366565352e-04 0.0000000000000000e+00  8.2620452984559999e-04  1.0207986749834399e-03 0.0000000000000000e+00  7.7958735591839826e-04  9.0831066990651119e-04 0.0000000000000000e+00  2.6063295202980136e-04  3.0438893590465982e-04 0.0000000000000000e+00  2.2359141029949155e-04  3.7747983916374572e-04 0.0000000000000000e+00  4.8176830221502729e-04  8.3039142613370741e-05 0.0000000000000000e+00  3.1100008952773735e-04  9.6673230670378497e-05 0.0000000000000000e+00  9.1297060121754334e-04  8.7779113999900853e-04 0.0000000000000000e+00  8.5408491307954900e-04  8.8173717812409550e-04 0.0000000000000000e+00  4.7006909969308120e-05  1.2985350533732494e-04 0.0000000000000000e+00  3.3398811307537253e-05  1.5241319072695195e-04 0.0000000000000000e+00  2.7428645927326232e-04  9.4940410492565458e-04 0.0000000000000000e+00  3.8929088723766158e-04  9.5952229363680235e-04 0.0000000000000000e+00  4.5448970341293047e-04  8.8860108151356829e-04 0.0000000000000000e+00  3.9227444739093866e-04  9.3080129081658054e-04 0.0000000000000000e+00  5.7082787608481742e-04  2.6625567067881675e-05 0.0000000000000000e+00  1.7963576423265064e-04  6.6378177628148620e-05 0.0000000000000000e+00  1.8918196516573489e-04  6.5324348624192096e-05 0.0000000000000000e+00  4.7785019380681905e-04  4.0877033078461105e-04 0.0000000000000000e+00  4.6664033734510356e-04  4.5988712849730342e-04 0.0000000000000000e+00  1.0695381270882114e-04  4.0353651194528030e-04 0.0000000000000000e+00  8.8426494695383626e-05  3.9858699918173462e-04 0.0000000000000000e+00  5.1141232008639081e-04  2.1622569299358764e-05 0.0000000000000000e+00  5.1273229813495293e-04  3.2865127834488327e-05 0.0000000000000000e+00  4.3470642468790651e-04  5.3820572233934177e-05 0.0000000000000000e+00  4.2553710987979995e-04  5.6458841266591648e-05 0.0000000000000000e+00  2.4844090838134058e-04  6.0256459704777676e-04 0.0000000000000000e+00  2.3259975193054501e-04  4.6006486972629906e-04 0.0000000000000000e+00  1.9794121071424519e-04  4.5469844130746308e-04 0.0000000000000000e+00  2.3033983973254576e-04  5.1458569565346855e-04 0.0000000000000000e+00  4.1533355940905633e-05  6.0730446852336488e-05 0.0000000000000000e+00  4.4659221680664575e-05  1.3808967917160306e-04 0.0000000000000000e+00  3.5502505420194813e-04  3.2638834355317299e-04 0.0000000000000000e+00  3.9424587546436077e-04  3.3477010509995421e-04 0.0000000000000000e+00  1.7550420077356771e-04  1.9505090600636452e-04 0.0000000000000000e+00  7.1421965070034621e-05  2.2928693915343895e-04 0.0000000000000000e+00  1.9313619295165327e-04  1.9664335986669391e-05 0.0000000000000000e+00  2.7108233872171291e-04  5.6248471713134144e-05 0.0000000000000000e+00  2.7494610129130611e-04  4.0606473627244660e-05 0.0000000000000000e+00  2.2989068455186019e-04  4.8948655048785870e-05 0.0000000000000000e+00  1.6254639343133480e-04  6.1563514507652865e-05 0.0000000000000000e+00  2.2396668925283480e-04  4.5841502305232731e-05 0.0000000000000000e+00  1.8798046819392888e-04  3.0601482072228165e-05 0.0000000000000000e+00  9.1788775139200953e-04  4.8944151100826659e-04 0.0000000000000000e+00  9.1918189535513685e-04  5.6937781478231077e-04 0.0000000000000000e+00  8.5035860893440914e-04  4.7631844266036593e-04 0.0000000000000000e+00  8.8458011788734468e-04  8.9037039862812175e-04 0.0000000000000000e+00  5.6142677868833480e-04  9.8073211861446894e-04 0.0000000000000000e+00  2.9502822888556910e-05  5.8214109855354607e-04 0.0000000000000000e+00  2.9649097314258736e-05  6.0005265468026584e-04 0.0000000000000000e+00  7.1926101660442943e-04  7.8437714903551269e-05 0.0000000000000000e+00  8.8533747354168951e-04  6.6956797509036959e-05 0.0000000000000000e+00  3.5955179277619593e-04  2.1438395232413677e-04 0.0000000000000000e+00  2.1271943344350905e-04  1.6099504112108707e-04 0.0000000000000000e+00  6.3949163498534082e-05  3.6034977591367640e-05 0.0000000000000000e+00  3.8435178616477891e-05  6.0471265614354273e-05 0.0000000000000000e+00  7.2340076036504731e-04  7.4987666518243573e-04 0.0000000000000000e+00  8.2758745963222081e-04  7.5934123946574071e-04 0.0000000000000000e+00  1.6513710556916828e-04  1.2385888641987472e-04 0.0000000000000000e+00  2.2793861405541200e-04  1.1158993212751826e-04 0.0000000000000000e+00  1.2205644957415793e-04  5.4818860346007500e-04 0.0000000000000000e+00  1.4100858904109669e-04  3.9260582484870992e-04 0.0000000000000000e+00  6.9158762660325368e-04  8.2959812629284193e-05 0.0000000000000000e+00  7.8028049833201471e-04  1.1655012587117882e-04 0.0000000000000000e+00  7.9586400367120177e-04  4.1340353584595055e-05 0.0000000000000000e+00  5.9129301364951718e-04  3.6246110630470725e-05 0.0000000000000000e+00  4.9859324815767841e-04  1.5015718051238936e-05 0.0000000000000000e+00  5.2023880892167001e-04  2.3704760914676907e-04 0.0000000000000000e+00  5.8924884892324746e-04  1.3065402471077576e-04 0.0000000000000000e+00  8.9676632305263706e-04  7.7247026209342718e-04 0.0000000000000000e+00  2.9598236903266898e-04  7.2556165882746264e-04 0.0000000000000000e+00  2.7041975789305510e-04  5.6421800833739199e-04 0.0000000000000000e+00  8.7333347080137988e-04  1.7181905478982546e-04 0.0000000000000000e+00  7.9752154729826490e-04  2.0615580772467883e-04 0.0000000000000000e+00  1.0481569824459670e-03  5.6436872402311173e-06 0.0000000000000000e+00  1.9971377433206443e-05  9.1118428369599117e-04 0.0000000000000000e+00  8.4582773093655198e-06  1.0461669559231666e-03 0.0000000000000000e+00  4.0093682584223048e-05  1.9824951905384134e-04 0.0000000000000000e+00  2.3469482570700188e-05  2.9788729476186204e-04 0.0000000000000000e+00  2.4157223548315519e-05  2.1605979181647640e-04 0.0000000000000000e+00  3.2558621636209992e-05  1.5844496788240060e-04 0.0000000000000000e+00  7.7303432748744027e-05  2.4136637027573861e-04 0.0000000000000000e+00  6.7406660259430203e-05  3.4861223042136042e-04 0.0000000000000000e+00  9.9250013888316455e-05  5.4611174144852743e-05 0.0000000000000000e+00  9.0319072870663158e-05  2.2201526797331397e-05 0.0000000000000000e+00  5.9850412279792836e-05  5.7634497651439328e-05 0.0000000000000000e+00  8.1844287614589952e-05  3.4479045448784039e-05 0.0000000000000000e+00  5.2185215964572931e-04  5.1143140019507577e-04 0.0000000000000000e+00  5.9754948043343778e-04  4.9446554032888626e-04 0.0000000000000000e+00  2.6142654103952363e-05  -1.2859049987014970e-06 0.0000000000000000e+00  2.6889917794992474e-05  3.2073128898685580e-06 0.0000000000000000e+00  2.6405765622835521e-05  5.1283794455282237e-05 0.0000000000000000e+00  8.1915070216192598e-04  6.3735747685443741e-04 0.0000000000000000e+00  7.6307463226267915e-04  7.5214185153143348e-04 0.0000000000000000e+00  1.0895521575792261e-04  9.7911024567565096e-05 0.0000000000000000e+00  7.6471577944737620e-05  7.6170782633953248e-05 0.0000000000000000e+00  1.4735453555547598e-04  4.2252061238394463e-05 0.0000000000000000e+00  2.9190330874461450e-04  4.0815560783260521e-05 0.0000000000000000e+00  1.1677551341189745e-04  2.2112649893242471e-04 0.0000000000000000e+00  5.7923766913724916e-05  2.9285523267414743e-04 0.0000000000000000e+00  8.8528714489030349e-05  3.1300214642605574e-04 0.0000000000000000e+00  1.1997927320784597e-04  3.0440260201514439e-04 0.0000000000000000e+00  1.3892618330292196e-04  6.8117452764789965e-04 0.0000000000000000e+00  1.8835571702806428e-04  6.8890477790623558e-04 0.0000000000000000e+00  1.5974428381117906e-04  4.8161147383878630e-04 0.0000000000000000e+00  1.3523886633124761e-04  5.8995172207598897e-04 0.0000000000000000e+00  3.1594399394609156e-04  9.7569200524560637e-04 0.0000000000000000e+00  2.6282040114373811e-04  1.0298235509588209e-03 0.0000000000000000e+00  9.55