<?xml version="1.0"?>
<VTKFile type="UnstructuredGrid"  version="0.1"  >
<UnstructuredGrid>
<Piece  NumberOfPoints="1385" NumberOfCells="2640">
<Points>
<DataArray  type="Float64"  NumberOfComponents="3"  format="ascii">0 0 0  1 0 0  1 1 0  0 1 0  0.5 0 0  1 0.5 0  0.5 1 0  0 0.5 0  0.5 0.5 0  0 0.25 0  0.25 0 0  0.25 1 0  0 0.75 0  1 0.25 0  0.75 0 0  1 0.75 0  0.75 1 0  0.7083333333333333 0.2916666666666667 0  0.2916666666666666 0.7083333333333334 0  0.375 0.25 0  0.75 0.625 0  0.2569444444444444 0.4652777777777778 0  0.5366379310344828 0.7535919540229885 0  0.1875 0.1875 0  0.8125 0.8125 0  0.869047619047619 0.375 0  0.1450441919191919 0.6052714646464646 0  0.375 0.8690476190476191 0  0.5526960784313725 0.1825980392156862 0  0.8385416666666666 0.1614583333333334 0  0.1614583333333333 0.8385416666666667 0  0.6736111111111112 0.4652777777777778 0  0.1367521367521368 0.3477564102564102 0  0.6570970491253563 0.8648656830417855 0  0.5102479397556124 0.3386260301221938 0  0.3654513888888889 0.5737847222222222 0  0.6929750044954185 0.1362784921584263 0  0.388576102743835 0.411911725237599 0  0.6091269841269842 0.5942460317460317 0  0.875 0.6875 0  0.427278890279516 0.119889445139758 0  0.8544456845238095 0.5213913690476191 0  0.125 0 0  0 0.125 0  1 0.875 0  0.875 1 0  0.1280008648150532 0.4769292340226777 0  0.2695382451711197 0.3321750950221553 0  0.7031567235715964 0.7447810921428012 0  0.625 0 0  0.375 0 0  0.125 1 0  0.875 0 0  0 0.375 0  0 0.625 0  1 0.375 0  0.375 1 0  1 0.125 0  0 0.875 0  0.625 1 0  1 0.625 0  0.2979288363930608 0.1201429454643536 0  0.410919540229885 0.7484605911330049 0  0.5325041980395562 0.878905151526474 0  0.4831670727569156 0.6331060043826487 0  0.1735997378973042 0.7204747378973043 0  0.2534919507575758 0.5772372159090909 0  0.2633928571428572 0.8876488095238095 0  0.8199404761904761 0.2730654761904762 0  0.75830270586982 0.3919383189517417 0  0.5750282248382511 0.4237522353023667 0  0.6008360210023379 0.2794828358598495 0  0.08163442644334186 0.6821295860397322 0  0.08333333333333333 0.1875 0  0.2028380815996574 0.08844602719988583 0  0.2766521142611967 0.2325436572164097 0  0.90625 0.78125 0  0.890625 0.890625 0  0.7545696325008384 0.8973565441669461 0  0.5625 0.08086590340834317 0  0.09077380952380953 0.09077380952380952 0  0.4610923478694773 0.209034015149656 0  0.7542527598351648 0.5248380520595106 0  0.6459235536037465 0.3619913988405765 0  0.7560381768882634 0.20506142233852 0  0.07073252688172042 0.8125 0  0.0924753097241701 0.9078102849914793 0  0.9292674731182795 0.1875 0  0.9075246902758297 0.09218971500852073 0  0.8125 0.07073252688172045 0  0.2400955776842301 0.7869705776842302 0  0.9121050213379069 0.2781978201831695 0  0.7916878157143976 0.7239689078571988 0  0.9345238095238094 0.4375 0  0.4375 0.9345238095238095 0  0.3725616989755203 0.6651895248862173 0  0.06536271996350887 0.5625 0  0.9348362560379583 0.5625 0  0.456646798987055 0.8277247094351965 0  0.1875 0.9355758238725954 0  0.6169761231634859 0.6939779188977889 0  0.6226854751147515 0.7827911461419014 0  0.3305695598137626 0.7901697871282585 0  0.5865305325818898 0.5101085479043448 0  0.6622701297028378 0.2177663989757395 0  0.1354166666666667 0.2591702279202279 0  0 0.3125 0  0.2094429575680048 0.3936361846162499 0  0.836666296419157 0.607917407161686 0  0.6875 1 0  0.214261555450504 0.6492551722020035 0  0 0.4375 0  0.07731537126068377 0.40625 0  0.3427725432967068 0.4879566233699599 0  0.3550792513951871 0.3331953632609953 0  0.4462473953896857 0.2887834789342508 0  0.4747801464819794 0.417386052030127 0  0.8229836475148948 0.4443292349237342 0  0.7322605135514757 0.8199240278289671 0  0.6756431877205955 0.5468989748126787 0  0.1968419507215863 0.5194573482612496 0  0.3285590277777778 0.9345238095238095 0  0.8125 1 0  0.4198917601920009 0.5134893045331258 0  0.5232405503206691 0.2595791787880157 0  1 0.9375 0  0.1987510870015086 0.3025185951894431 0  0.5625 1 0  0.6005390654136388 0.9228110509230952 0  0.6411254848194414 0.07704872765442942 0  0.3357233162523242 0.1855113224530532 0  0.6730653396610877 0.6393887462324165 0  0.310966987234063 0.6240019765311626 0  0.7368737836204349 0.07457755202327881 0  0.6192316414418171 0.1485238406378594 0  0.5432429670607106 0.678552703844006 0  0.4754371679695679 0.7103946803120881 0  0.07501324890749672 0.3043839897335739 0  0.5358146975860403 0.5688321463205916 0  0.3115271739500156 0.3982137365971444 0  0.3625191397122174 0.0767854603650549 0  0.5024029442563831 0.1264128223758444 0  0.4375 0 0  0.4699946908887376 0.06379961173775725 0  0.9375 0.71875 0  0.9272105898044465 0.635671179608893 0  0.9375 1 0  0.6690971819568612 0.9331530898202766 0  0.1073454944778885 0.7499206387638554 0  0.8699082999280406 0.2232403652524313 0  0.5773118091863964 0.3548027349159383 0  0.1354166666666667 0.1428571428571428 0  0.3125 0 0  0.8241684193077341 0.9257452995055244 0  0.4352314948354036 0.3586940847489378 0  0.4351301473778832 0.5819726043539077 0  0.8073232928518163 0.3419398170341962 0  0.7775949246947366 0.1298519409204575 0  0.6875 0 0  0.7413513991851041 0.457933324954483 0  0.939453125 0.841796875 0  0.5630355154606987 0.8171875156478349 0  0.9345238095238095 0.3461466592368577 0  0.9375 0 0  1 0.0625 0  0.0625 1 0  0 0.9375 0  0.06552178593177167 0.4969053669623468 0  0.1424866619031703 0.4130277709291224 0  0.1275287182444726 0.5422946908002588 0  0.2637686595586339 0.06413888464529549 0  0.2524263535491086 0.1697437503243817 0  0.7367218397988525 0.6888573970660841 0  0.0625 0 0  0 0.0625 0  0.8463594539285995 0.7578283617857982 0  0.3128751192101563 0.2851997374369947 0  0.4015281788351144 0.1806421385113692 0  0.1910251795116588 0.4553332197174453 0  0.287797471442006 0.5222621440543902 0  0.3962628745986055 0.8097380085535307 0  0.3505895299554843 0.7304878890838692 0  0.5019151500495276 0.9356042615328103 0  0.9374389419410134 0.4999931039076005 0  0.3125 1 0  0.1875 1 0  1 0.5625 0  0.4375 1 0  1 0.3125 0  1 0.4375 0  0.8125 0 0  1 0.1875 0  0.5625 0 0  0.1875 0 0  0 0.1875 0  0 0.5625 0  0 0.6875 0  0 0.8125 0  1 0.6875 0  1 0.8125 0  0.8021696218581627 0.6612893947866073 0  0.06154922295426143 0.6239401126946708 0  0.9359375 0.9359375 0  0.4666158024849896 0.7691515918155014 0  0.2318201265217025 0.7064974250277525 0  0.1565954253579966 0.6635489312486841 0  0.1598132503680848 0.7787147500325552 0  0.3146529991605639 0.8510876378205265 0  0.1461873209418733 0.05982804528877814 0  0.06109554988524315 0.2446551776247686 0  0.8054950308560754 0.5564226538848541 0  0.470541749491976 0.8853316336952531 0  0.6948472567465137 0.4042308563372457 0  0.8802828472348889 0.4658893256343853 0  0.6788075634946739 0.7974194205806069 0  0.2155048659603867 0.2428201584940968 0  0.8131223143423806 0.2132171049028394 0  0.4330798005432235 0.6671274900735726 0  0.6015279126162613 0.2187368078743274 0  0.8061636571464289 0.8703766630361714 0  0.7008230445061776 0.3478568388444072 0  0.8638466246958771 0.3147095987735538 0  0.204801534004265 0.8789209409594009 0  0.2449006736431132 0.9424182882803838 0  0.7611268409371427 0.2643056884799992 0  0.7552800864046191 0.7678006649959446 0  0.5983639638906616 0.864113435029236 0  0.1956559506814437 0.577281203577426 0  0.3527670268164207 0.1320469097565204 0  0.7530364577483248 0.3262386077083089 0  0.4535919187979363 0.4690107087451527 0  0.8824869791666666 0.8336588541666666 0  0.8814453125 0.9451171875 0  0.5582987942628019 0.622421666543858 0  0.6817532446064828 0.6939001801354731 0  0.3830295138888889 0.9450968952922078 0  0.4140603937012541 0.05211333372716105 0  0.5535864501303013 0.3060591985391672 0  0.6560130086346878 0.2729726562211558 0  0.890203140221684 0.5948314305427268 0  0.7043857725999024 0.593980890020804 0  0.5105843922695152 0.8016828014338627 0  0.05365910753708378 0.7315110031682004 0  0.616904573672261 0.4621186633436136 0  0.5338511646455415 0.387875898899613 0  0.5231769258947843 0.4477682463140762 0  0.650302973237622 0.7370722302085519 0  0.3927483139621257 0.4662414504529014 0  0.8034595960585199 0.4972538342758211 0  0.7738337841682438 0.9496376207663251 0  0.7193737507158268 0.954685447650112 0  0.482525916480686 0.5528257169991676 0  0.2533501157346781 0.2809495420003238 0  0.3118487924482243 0.5702930126570319 0  0.6257598847669529 0.4104163315430518 0  0.1354166666666667 0.1955605158730158 0  0.04166666666666666 0.15625 0  0.3956448985530264 0.6174149462065157 0  0.8102897701818546 0.3938784238208349 0  0.2641154190013625 0.8344469561943118 0  0.642852220770013 0.5068794586563659 0  0.05271458179508221 0.355846947336007 0  0.7021551360070266 0.8921457280225779 0  0.5692125776683765 0.1328512638850284 0  0.5206162811937602 0.04865158770992991 0  0.6001838442201555 0.04540556991297563 0  0.2597716608242787 0.4118346398477178 0  0.4040584599473195 0.3179589136784675 0  0.1480337679295207 0.8941560631483065 0  0.1344356707112281 0.9466251177415842 0  0.7114696411829317 0.4983917389078826 0  0.7585704698442475 0.5751926345944629 0  0.2189131956390871 0.04022068508159698 0  0.2476935455192043 0.1123642267635843 0  0.185995005654517 0.1365524537205238 0  0.6223414373308711 0.643380839165121 0  0.5732602596637543 0.7190051747306219 0  0.268358222364537 0.6586246524467934 0  0.3265879848129173 0.2369791782191225 0  0.1267095595787346 0.7034787238999181 0  0.1115202922226038 0.6421997933884982 0  0.3128688392940203 0.07260997451790079 0  0.550724900485678 0.9253360991633187 0  0.7142608810459105 0.2384904702214873 0  0.7045869185243887 0.1871826897887429 0  0.890625 0.734375 0  0.953125 0.765625 0  0.2111812642821677 0.8286209446459138 0  0.9590293078204457 0.09375 0  0.953431269039847 0.1435719386408004 0  0.04097069217955424 0.90625 0  0.04656873096015299 0.8564280613591996 0  0.1078743037981226 0.8541621766048062 0  0.8921256962018773 0.1458378233951939 0  0.8521576979194619 0.1084496634207678 0  0.8655663982740958 0.05464346096571447 0  0.04005659640905543 0.09375 0  0.1001448316533417 0.04246776244228261 
[...]
<CellData  Vectors="f_8394-1"> 
<DataArray  type="Float64"  Name="f_8394-1"  NumberOfComponents="3" format="ascii">1.0609550925271905e-04  9.1281946872553979e-05 0.0000000000000000e+00  3.1976517069358101e-05  4.5535991926137633e-05 0.0000000000000000e+00  3.4139076809220774e-05  4.2678848465814040e-05 0.0000000000000000e+00  1.8358059410677444e-05  2.4464662054983842e-05 0.0000000000000000e+00  5.1891371719202662e-05  9.5395635383818385e-05 0.0000000000000000e+00  4.3279278645438134e-05  4.2353802900604352e-05 0.0000000000000000e+00  3.4023899992057255e-05  2.7624671282888371e-04 0.0000000000000000e+00  2.3234770997723857e-05  3.9935014379151735e-04 0.0000000000000000e+00  3.4027086250375591e-04  1.9856618339015130e-05 0.0000000000000000e+00  1.5508189236324284e-04  6.2518280468661262e-06 0.0000000000000000e+00  6.7011559623411277e-05  3.0478119349865391e-05 0.0000000000000000e+00  2.4045466602393254e-04  2.8835410365407463e-04 0.0000000000000000e+00  1.8976422112829873e-04  3.5616041194549703e-04 0.0000000000000000e+00  2.8054953017172667e-04  2.0396459688733006e-04 0.0000000000000000e+00  3.5061200647304642e-04  1.6230595950878551e-04 0.0000000000000000e+00  3.0110050584101659e-04  1.1260799224652328e-04 0.0000000000000000e+00  2.0634899422587659e-04  2.2903619068761853e-04 0.0000000000000000e+00  9.3758916430443853e-05  1.0862343995432303e-04 0.0000000000000000e+00  5.2785255267037478e-05  2.5394062689472246e-04 0.0000000000000000e+00  1.4579963661057353e-04  5.2489437129582164e-05 0.0000000000000000e+00  1.5450144980218612e-04  3.4920727420834828e-05 0.0000000000000000e+00  2.7749277253206822e-04  1.0452158661086768e-04 0.0000000000000000e+00  3.0616811575824213e-04  9.7684394952140649e-05 0.0000000000000000e+00  3.9636350015939333e-05  2.7481843500497060e-04 0.0000000000000000e+00  5.2262556949664646e-05  1.3827908019161018e-04 0.0000000000000000e+00  6.6686007609382205e-05  3.2598144361208720e-04 0.0000000000000000e+00  7.0725566651916265e-06  4.1706091812943970e-05 0.0000000000000000e+00  2.5241349954796739e-04  3.2273888129177244e-05 0.0000000000000000e+00  2.2363473430935269e-05  3.9211528174492465e-04 0.0000000000000000e+00  1.4635092370754389e-04  1.7006950799517850e-05 0.0000000000000000e+00  3.3762514092768915e-04  4.9813724199150124e-05 0.0000000000000000e+00  1.3227365241609489e-04  1.8813944225697478e-04 0.0000000000000000e+00  1.3710316562712765e-04  7.3066897965744115e-05 0.0000000000000000e+00  2.0342748587964040e-04  3.2390965977635583e-04 0.0000000000000000e+00  7.5437609607809818e-05  2.6537083239634651e-05 0.0000000000000000e+00  1.0032457630566826e-04  5.6828287222070406e-05 0.0000000000000000e+00  1.0644827224555089e-04  1.4501758617892132e-04 0.0000000000000000e+00  5.6479647503281054e-05  2.8640878439015850e-04 0.0000000000000000e+00  2.1215981644685688e-04  2.9422745648472089e-05 0.0000000000000000e+00  9.3934492964943631e-05  8.6250849212910966e-05 0.0000000000000000e+00  9.1425942235166680e-05  8.1253658442034121e-05 0.0000000000000000e+00  1.5160731963791458e-04  9.1166667655257267e-05 0.0000000000000000e+00  3.2146484394126050e-04  1.4821444366630912e-04 0.0000000000000000e+00  3.5153488715663225e-04  1.5479338075403894e-04 0.0000000000000000e+00  5.5637164300666167e-05  1.5954880294516013e-05 0.0000000000000000e+00  4.1534010318840421e-04  2.0414138579529360e-04 0.0000000000000000e+00  2.9792372810584939e-04  1.4813501664182646e-04 0.0000000000000000e+00  3.6063146722071338e-05  3.7656538071555756e-05 0.0000000000000000e+00  4.0230661104950988e-04  2.9863015034403391e-04 0.0000000000000000e+00  3.8459627993691188e-04  2.3932727398180440e-04 0.0000000000000000e+00  3.3121074037929885e-04  3.1452877428628543e-04 0.0000000000000000e+00  3.6816936080644966e-04  3.5496278635345030e-04 0.0000000000000000e+00  5.2618343036275523e-05  1.5992300810062983e-04 0.0000000000000000e+00  9.8099275182340670e-05  5.2295022966024041e-05 0.0000000000000000e+00  5.0251526889834019e-05  9.0732952410277581e-05 0.0000000000000000e+00  2.5073736316476080e-04  2.5341753209118538e-04 0.0000000000000000e+00  2.0023564759769384e-04  1.8210004258697413e-04 0.0000000000000000e+00  1.8810671897556187e-04  4.9685270170739150e-05 0.0000000000000000e+00  7.8800506526569011e-05  1.9407536409974584e-05 0.0000000000000000e+00  2.3722019519469870e-05  3.5754497515270111e-04 0.0000000000000000e+00  1.9997363723414822e-05  3.4687495151113746e-04 0.0000000000000000e+00  3.1608501564415288e-04  3.5578629429543877e-05 0.0000000000000000e+00  2.9986774518876799e-05  7.6571692720053407e-05 0.0000000000000000e+00  2.8633950289118044e-05  1.6701471371360300e-04 0.0000000000000000e+00  4.2118788855022549e-05  1.8010478219691677e-04 0.0000000000000000e+00  2.9218788520364412e-04  5.9018125208697959e-05 0.0000000000000000e+00  4.4661213371526121e-05  2.7100533674792165e-04 0.0000000000000000e+00  3.7035283444370354e-04  1.9060800900527647e-05 0.0000000000000000e+00  1.9880612019986837e-05  3.8786742108401701e-04 0.0000000000000000e+00  1.2945323296230602e-04  4.1302853827082214e-04 0.0000000000000000e+00  1.4095951829999693e-04  3.8257986322068994e-04 0.0000000000000000e+00  3.3674961388103055e-04  1.8967037053551554e-04 0.0000000000000000e+00  5.3204456818982850e-05  5.3240537447098339e-05 0.0000000000000000e+00  9.7309584029056710e-05  1.6105670843314147e-04 0.0000000000000000e+00  1.6554575843976332e-04  2.2893643491342944e-04 0.0000000000000000e+00  9.3773620478362969e-05  3.0914396431013560e-04 0.0000000000000000e+00  1.3494298883367381e-04  3.1024569305762687e-04 0.0000000000000000e+00  1.3313655295005931e-04  2.1455120438333851e-04 0.0000000000000000e+00  1.0377163809130850e-04  2.6977864510709083e-04 0.0000000000000000e+00  2.4640363611270845e-05  2.0474821148626891e-04 0.0000000000000000e+00  2.2391303904912367e-05  1.6176891060985939e-04 0.0000000000000000e+00  2.1593355287974996e-05  1.4742097001513231e-04 0.0000000000000000e+00  4.5741715849241383e-05  1.2953617080044302e-04 0.0000000000000000e+00  2.9287055848537281e-05  4.0507799378578565e-04 0.0000000000000000e+00  3.5405186305683480e-04  4.7618742694025289e-05 0.0000000000000000e+00  2.2678421946463077e-04  3.5129986814449317e-05 0.0000000000000000e+00  2.2132266529616891e-04  7.9618476585663358e-05 0.0000000000000000e+00  3.3505856384560552e-04  6.2698634533281836e-05 0.0000000000000000e+00  2.2041491704381189e-04  1.1403447356078827e-04 0.0000000000000000e+00  1.3748587038906802e-04  1.0067938064088951e-04 0.0000000000000000e+00  1.9903098615024292e-04  3.4614220182704410e-05 0.0000000000000000e+00  1.7629180557584932e-04  5.6608464665970473e-05 0.0000000000000000e+00  2.3402727326988825e-05  2.5273890351697039e-05 0.0000000000000000e+00  2.3047907935825631e-05  4.0942434391569470e-06 0.0000000000000000e+00  4.2619444137530884e-05  4.4414240349436722e-05 0.0000000000000000e+00  6.1739595407453240e-05  4.4292316520320501e-05 0.0000000000000000e+00  7.5336085937739020e-05  2.7227542998213896e-05 0.0000000000000000e+00  2.5558949617660384e-04  4.0833638767675238e-04 0.0000000000000000e+00  2.4826813911804413e-04  3.7448261557131287e-04 0.0000000000000000e+00  1.2064267004092104e-04  5.0565656875411996e-05 0.0000000000000000e+00  9.3389925477977155e-05  4.0782350685030165e-05 0.0000000000000000e+00  1.0546093179789268e-04  6.0830984572805038e-05 0.0000000000000000e+00  1.1092904296019741e-04  4.1092852010988311e-05 0.0000000000000000e+00  2.1160092202360061e-04  1.6558190340788250e-04 0.0000000000000000e+00  2.0719812476763355e-04  1.3842745579076664e-04 0.0000000000000000e+00  2.6932166080135335e-04  7.0422243070045223e-05 0.0000000000000000e+00  2.1364453085441211e-04  9.9765555044100272e-05 0.0000000000000000e+00  2.3279146448978218e-04  4.3821079444038058e-05 0.0000000000000000e+00  1.9582805302104157e-04  2.6163117770695302e-05 0.0000000000000000e+00  1.9711592551275121e-05  3.3405143617695196e-04 0.0000000000000000e+00  2.7100257622105612e-05  3.4114408160231110e-04 0.0000000000000000e+00  3.9114687685774233e-04  1.6105143977294506e-05 0.0000000000000000e+00  3.7648855835060589e-04  3.3592731742972062e-05 0.0000000000000000e+00  2.8902725887666476e-04  2.0031556466574275e-05 0.0000000000000000e+00  2.7928225021500285e-04  1.1102723631247754e-05 0.0000000000000000e+00  3.2452829050239646e-05  2.7744379798348663e-04 0.0000000000000000e+00  5.3081843616491323e-05  2.0798723204594612e-04 0.0000000000000000e+00  3.8727894895311180e-04  4.6496509157095029e-05 0.0000000000000000e+00  3.1509180482186013e-04  2.0726836223392280e-04 0.0000000000000000e+00  2.7019058816539406e-04  2.4014723394879379e-04 0.0000000000000000e+00  1.1748700955508754e-04  3.3314036075070708e-04 0.0000000000000000e+00  1.1538122288974050e-04  3.8680736287360429e-04 0.0000000000000000e+00  4.6542164574306402e-05  1.4523063000144933e-04 0.0000000000000000e+00  7.4683547345498206e-05  1.7766166991791847e-04 0.0000000000000000e+00  2.4242476488818094e-05  1.3681437640869262e-04 0.0000000000000000e+00  3.9278140679278955e-05  1.4713846555027436e-04 0.0000000000000000e+00  3.5808401851719938e-04  1.1458985623184192e-04 0.0000000000000000e+00  3.8415906463522086e-04  1.3978767849610345e-04 0.0000000000000000e+00  9.6064994227338459e-05  3.6415340131310442e-04 0.0000000000000000e+00  9.7771829684966207e-05  2.1144415245536702e-04 0.0000000000000000e+00  1.4893586934981332e-04  1.6708651759322690e-04 0.0000000000000000e+00  1.7180819857355321e-04  1.5308803997751290e-04 0.0000000000000000e+00  1.5645127267698261e-04  3.2932286359685207e-04 0.0000000000000000e+00  1.4049154940052081e-04  3.2300266673780149e-04 0.0000000000000000e+00  7.3515282660885288e-05  3.2903570884241709e-04 0.0000000000000000e+00  8.7494562487427959e-05  3.6454330166190704e-04 0.0000000000000000e+00  1.9025660350235836e-04  1.7754292752568361e-04 0.0000000000000000e+00  1.2826083807597138e-04  1.9462944120809513e-04 0.0000000000000000e+00  2.1577075367795138e-04  3.7320871119982682e-05 0.0000000000000000e+00  2.3619302965774983e-04  4.3257521190890667e-05 0.0000000000000000e+00  2.7298080332302122e-05  4.4683299564558569e-05 0.0000000000000000e+00  2.8838086857155617e-05  2.1142562931506285e-05 0.0000000000000000e+00  1.9486048793513141e-05  5.0737651491187135e-05 0.0000000000000000e+00  3.8481737210464115e-05  3.0370944168972561e-05 0.0000000000000000e+00  3.4353719699304060e-05  1.3184208981548685e-04 0.0000000000000000e+00  3.8801805761038163e-05  8.3352491890936820e-05 0.0000000000000000e+00  3.8025168740002716e-04  1.9391589819443660e-04 0.0000000000000000e+00  2.9722659281630732e-04  1.7216424900057918e-04 0.0000000000000000e+00  1.9005644795539573e-04  3.2982630501772838e-04 0.0000000000000000e+00  2.1048781918726070e-04  3.8728928379245522e-04 0.0000000000000000e+00  3.3629516666036797e-05  2.3263512640696790e-04 0.0000000000000000e+00  4.9473042562508360e-05  1.9934852136308439e-04 0.0000000000000000e+00  2.2200599546407699e-05  8.4554963873502325e-05 0.0000000000000000e+00  1.6571714420290451e-05  5.5611733974571489e-05 0.0000000000000000e+00  2.2110486500826891e-05  8.0200222055690294e-05 0.0000000000000000e+00  5.5175649595869608e-05  1.2744406203748677e-04 0.0000000000000000e+00  6.9524036218108882e-05  1.0537949440760528e-04 0.0000000000000000e+00  1.1505926861992266e-04  2.7933674514141900e-05 0.0000000000000000e+00  1.1852332325171568e-04  7.4591985927570411e-05 0.0000000000000000e+00  8.7284817263945863e-05  1.1543728434662773e-04 0.0000000000000000e+00  7.4855584715180978e-05  6.8519683872324478e-05 0.0000000000000000e+00  1.3976597816862070e-04  8.5616414750592338e-05 0.0000000000000000e+00  1.2452109230482320e-04  1.2978517686896234e-04 0.0000000000000000e+00  3.5615909705238679e-04  9.1224063030344689e-05 0.0000000000000000e+00  2.9212292671814576e-04  1.1155224938514165e-04 0.0000000000000000e+00  2.6412527410316755e-04  2.6377055891524241e-04 0.0000000000000000e+00  2.4650960365269061e-04  2.7400664324690797e-04 0.0000000000000000e+00  2.1695235728318073e-04  1.4556435858536541e-04 0.0000000000000000e+00  1.7395851237381809e-04  1.0832402969639232e-04 0.0000000000000000e+00  5.3741341919466074e-05  1.0740810333741325e-04 0.0000000000000000e+00  4.2324874771973354e-05  7.0696141569876728e-05 0.0000000000000000e+00  7.3813905337434462e-05  3.4489577228565314e-04 0.0000000000000000e+00  5.2176765543879363e-05  4.2539823245390856e-04 0.0000000000000000e+00  3.5182104516061070e-04  4.3138684850085120e-04 0.0000000000000000e+00  3.3097691388732180e-04  3.8501684548824757e-04 0.0000000000000000e+00  1.1537715625933596e-04  1.3203525226664404e-04 0.0000000000000000e+00  9.5794857523765021e-05  1.6977425803389008e-04 0.0000000000000000e+00  2.0918898063729401e-04  4.1168615535317787e-05 0.0000000000000000e+00  1.4807834557435502e-04  5.3220934707495772e-05 0.0000000000000000e+00  3.8819024672923330e-04  3.7124591435655648e-04 0.0000000000000000e+00  3.6149866765960710e-04  3.7612531350709024e-04 0.0000000000000000e+00  2.6703223706947005e-05  6.3826477611613746e-05 0.0000000000000000e+00  2.1793748829755087e-05  7.3468067149664418e-05 0.0000000000000000e+00  1.1789650096806584e-04  4.0968042184632983e-04 0.0000000000000000e+00  1.6696712609137656e-04  4.1242315167244129e-04 0.0000000000000000e+00  1.9486882471945796e-04  3.8176454205785226e-04 0.0000000000000000e+00  1.6825671835782267e-04  4.0033503912642880e-04 0.0000000000000000e+00  2.4893105157351307e-04  1.7697778166820586e-05 0.0000000000000000e+00  9.2664424471241324e-05  4.7857138120926215e-05 0.0000000000000000e+00  9.8467525022568204e-05  5.0227301004671084e-05 0.0000000000000000e+00  2.0728452700503742e-04  1.7596537120171838e-04 0.0000000000000000e+00  1.9921720939325777e-04  1.9860056923428878e-04 0.0000000000000000e+00  5.7587448573995219e-05  1.7313149394294414e-04 0.0000000000000000e+00  4.6240805336975734e-05  1.6909425687519080e-04 0.0000000000000000e+00  2.1724656327076972e-04  2.1056585039769444e-05 0.0000000000000000e+00  2.1701411074341169e-04  2.8168285976791861e-05 0.0000000000000000e+00  1.9557952283188809e-04  4.5464143422497623e-05 0.0000000000000000e+00  1.8217803362138363e-04  3.7055648132135035e-05 0.0000000000000000e+00  1.1050006872517438e-04  2.6314142316723465e-04 0.0000000000000000e+00  9.9956879045561171e-05  2.0545107772803434e-04 0.0000000000000000e+00  8.9817573872177179e-05  2.0270731570686202e-04 0.0000000000000000e+00  9.9852388405445778e-05  2.2833219637678913e-04 0.0000000000000000e+00  3.8276646225889753e-05  3.0942566720326154e-05 0.0000000000000000e+00  3.1810243034305973e-05  6.5169506999888767e-05 0.0000000000000000e+00  1.5249819281630794e-04  1.4793054168756321e-04 0.0000000000000000e+00  1.7337352223084857e-04  1.5271167860611131e-04 0.0000000000000000e+00  8.6173035650378174e-05  8.5667649439469099e-05 0.0000000000000000e+00  3.0520560435244246e-05  1.0760209703476661e-04 0.0000000000000000e+00  8.0665593136800649e-05  1.8849794466934872e-05 0.0000000000000000e+00  1.2901319955042919e-04  5.0554395259393233e-05 0.0000000000000000e+00  1.3684239205101340e-04  3.2508254005639006e-05 0.0000000000000000e+00  1.0437413207700366e-04  4.5737351898582234e-05 0.0000000000000000e+00  8.0942948514632897e-05  5.6965819243544173e-05 0.0000000000000000e+00  1.0159506493561726e-04  4.4832423844629397e-05 0.0000000000000000e+00  8.1296734356763918e-05  3.0528169318086952e-05 0.0000000000000000e+00  3.9437558400129554e-04  2.0978185863084199e-04 0.0000000000000000e+00  3.9378366316393163e-04  2.4278786382572770e-04 0.0000000000000000e+00  3.6523796357866334e-04  2.0382104638624673e-04 0.0000000000000000e+00  3.7383441928559889e-04  3.7745714041013078e-04 0.0000000000000000e+00  2.4019535092539699e-04  4.1967451269207476e-04 0.0000000000000000e+00  2.5529309325948833e-05  2.5681442197974998e-04 0.0000000000000000e+00  2.5449253096071634e-05  2.5039982787803332e-04 0.0000000000000000e+00  3.0890405179229277e-04  4.0776564446567371e-05 0.0000000000000000e+00  3.8915505572785671e-04  2.8499140376857639e-05 0.0000000000000000e+00  1.6341193339006852e-04  9.8267359350221020e-05 0.0000000000000000e+00  9.7463562784613601e-05  7.6956305154155132e-05 0.0000000000000000e+00  4.8074779659445214e-05  2.9082104576679243e-05 0.0000000000000000e+00  3.7309330128837669e-05  3.7268437404282068e-05 0.0000000000000000e+00  3.0833947642400786e-04  3.2000250547486770e-04 0.0000000000000000e+00  3.5075369549851727e-04  3.2231132992260436e-04 0.0000000000000000e+00  7.3890641925554242e-05  6.7270961785429522e-05 0.0000000000000000e+00  1.1931803933864504e-04  6.1916741727671302e-05 0.0000000000000000e+00  4.8841406525139271e-05  2.4170776781966979e-04 0.0000000000000000e+00  6.1255550571666609e-05  1.7961457930135995e-04 0.0000000000000000e+00  3.0611071277073437e-04  4.1406500599198111e-05 0.0000000000000000e+00  3.4139800124288738e-04  5.0327406768627470e-05 0.0000000000000000e+00  3.5194260381490059e-04  2.5311622969262956e-05 0.0000000000000000e+00  2.5829541764818873e-04  1.4300374660306855e-05 0.0000000000000000e+00  2.1751225559331661e-04  1.4876074037206248e-05 0.0000000000000000e+00  2.2207639234323638e-04  1.0766578329490753e-04 0.0000000000000000e+00  2.5748390808290057e-04  5.8865365364640702e-05 0.0000000000000000e+00  3.8200888790453698e-04  3.2810574804978268e-04 0.0000000000000000e+00  1.2912387746785587e-04  3.1427414836133252e-04 0.0000000000000000e+00  1.2169390264723171e-04  2.4912656443982801e-04 0.0000000000000000e+00  3.7886908937994008e-04  7.4033659606849312e-05 0.0000000000000000e+00  3.5124799293582190e-04  9.4240690211036415e-05 0.0000000000000000e+00  4.6047092300145845e-04  4.2168565789577156e-06 0.0000000000000000e+00  1.8979560011206931e-05  3.9853082973144194e-04 0.0000000000000000e+00  4.7336985536103019e-06  4.5399275188956961e-04 0.0000000000000000e+00  3.8869384741311872e-05  9.6437739831515954e-05 0.0000000000000000e+00  2.1439892566432886e-05  1.3755432607774487e-04 0.0000000000000000e+00  2.3323835412251309e-05  8.2656754761281824e-05 0.0000000000000000e+00  2.6445825525250001e-05  7.3782648221238303e-05 0.0000000000000000e+00  5.1967857643899488e-05  9.9217461197274051e-05 0.0000000000000000e+00  4.0071609534013787e-05  1.6223541877825824e-04 0.0000000000000000e+00  4.6341254790492140e-05  5.4491855925440791e-05 0.0000000000000000e+00  3.5757927915313214e-05  2.1317470519797813e-05 0.0000000000000000e+00  3.1221796756981394e-05  4.6923096046324659e-05 0.0000000000000000e+00  3.8702755699915503e-05  1.8782583414360341e-05 0.0000000000000000e+00  2.2574237063177470e-04  2.1891923588679245e-04 0.0000000000000000e+00  2.5633358564460424e-04  2.1282325719561147e-04 0.0000000000000000e+00  2.5843131817157653e-05  -3.6117086684924164e-06 0.0000000000000000e+00  2.6764480824664247e-05  -3.8788203303019267e-07 0.0000000000000000e+00  2.4169572237307993e-05  5.0105752918254004e-05 0.0000000000000000e+00  3.4931042061059879e-04  2.7106845261805947e-04 0.0000000000000000e+00  3.2453453583141143e-04  3.1915336765705321e-04 0.0000000000000000e+00  5.8141835256031465e-05  5.0259548466282856e-05 0.0000000000000000e+00  3.6221069789996662e-05  4.1292014062385923e-05 0.0000000000000000e+00  7.1146860022013863e-05  3.0967877790305520e-05 0.0000000000000000e+00  1.3464105631696372e-04  2.4690787612960358e-05 0.0000000000000000e+00  5.6100571888363165e-05  1.0400251229911098e-04 0.0000000000000000e+00  2.6868248328879725e-05  1.2644865573463164e-04 0.0000000000000000e+00  5.3654668355332041e-05  1.4212082330272965e-04 0.0000000000000000e+00  5.7527554359752323e-05  1.3688400565701605e-04 0.0000000000000000e+00  6.6948168691452852e-05  2.9626084021096836e-04 0.0000000000000000e+00  8.3870377764059327e-05  3.0031156602917220e-04 0.0000000000000000e+00  7.2421887141649343e-05  2.0754755447134081e-04 0.0000000000000000e+00  6.4304281954195180e-05  2.5606613509519783e-04 0.0000000000000000e+00  1.3543025115078064e-04  4.2003323968775076e-04 0.0000000000000000e+00  1.1287849749001839e-04  4.4292029118269999e-04 0.0000000000000000e+00  4.1