<?xml version="1.0"?>
<VTKFile type="UnstructuredGrid"  version="0.1"  >
<UnstructuredGrid>
<Piece  NumberOfPoints="1385" NumberOfCells="2640">
<Points>
<DataArray  type="Float64"  NumberOfComponents="3"  format="ascii">0 0 0  1 0 0  1 1 0  0 1 0  0.5 0 0  1 0.5 0  0.5 1 0  0 0.5 0  0.5 0.5 0  0 0.25 0  0.25 0 0  0.25 1 0  0 0.75 0  1 0.25 0  0.75 0 0  1 0.75 0  0.75 1 0  0.7083333333333333 0.2916666666666667 0  0.2916666666666666 0.7083333333333334 0  0.375 0.25 0  0.75 0.625 0  0.2569444444444444 0.4652777777777778 0  0.5366379310344828 0.7535919540229885 0  0.1875 0.1875 0  0.8125 0.8125 0  0.869047619047619 0.375 0  0.1450441919191919 0.6052714646464646 0  0.375 0.8690476190476191 0  0.5526960784313725 0.1825980392156862 0  0.8385416666666666 0.1614583333333334 0  0.1614583333333333 0.8385416666666667 0  0.6736111111111112 0.4652777777777778 0  0.1367521367521368 0.3477564102564102 0  0.6570970491253563 0.8648656830417855 0  0.5102479397556124 0.3386260301221938 0  0.3654513888888889 0.5737847222222222 0  0.6929750044954185 0.1362784921584263 0  0.388576102743835 0.411911725237599 0  0.6091269841269842 0.5942460317460317 0  0.875 0.6875 0  0.427278890279516 0.119889445139758 0  0.8544456845238095 0.5213913690476191 0  0.125 0 0  0 0.125 0  1 0.875 0  0.875 1 0  0.1280008648150532 0.4769292340226777 0  0.2695382451711197 0.3321750950221553 0  0.7031567235715964 0.7447810921428012 0  0.625 0 0  0.375 0 0  0.125 1 0  0.875 0 0  0 0.375 0  0 0.625 0  1 0.375 0  0.375 1 0  1 0.125 0  0 0.875 0  0.625 1 0  1 0.625 0  0.2979288363930608 0.1201429454643536 0  0.410919540229885 0.7484605911330049 0  0.5325041980395562 0.878905151526474 0  0.4831670727569156 0.6331060043826487 0  0.1735997378973042 0.7204747378973043 0  0.2534919507575758 0.5772372159090909 0  0.2633928571428572 0.8876488095238095 0  0.8199404761904761 0.2730654761904762 0  0.75830270586982 0.3919383189517417 0  0.5750282248382511 0.4237522353023667 0  0.6008360210023379 0.2794828358598495 0  0.08163442644334186 0.6821295860397322 0  0.08333333333333333 0.1875 0  0.2028380815996574 0.08844602719988583 0  0.2766521142611967 0.2325436572164097 0  0.90625 0.78125 0  0.890625 0.890625 0  0.7545696325008384 0.8973565441669461 0  0.5625 0.08086590340834317 0  0.09077380952380953 0.09077380952380952 0  0.4610923478694773 0.209034015149656 0  0.7542527598351648 0.5248380520595106 0  0.6459235536037465 0.3619913988405765 0  0.7560381768882634 0.20506142233852 0  0.07073252688172042 0.8125 0  0.0924753097241701 0.9078102849914793 0  0.9292674731182795 0.1875 0  0.9075246902758297 0.09218971500852073 0  0.8125 0.07073252688172045 0  0.2400955776842301 0.7869705776842302 0  0.9121050213379069 0.2781978201831695 0  0.7916878157143976 0.7239689078571988 0  0.9345238095238094 0.4375 0  0.4375 0.9345238095238095 0  0.3725616989755203 0.6651895248862173 0  0.06536271996350887 0.5625 0  0.9348362560379583 0.5625 0  0.456646798987055 0.8277247094351965 0  0.1875 0.9355758238725954 0  0.6169761231634859 0.6939779188977889 0  0.6226854751147515 0.7827911461419014 0  0.3305695598137626 0.7901697871282585 0  0.5865305325818898 0.5101085479043448 0  0.6622701297028378 0.2177663989757395 0  0.1354166666666667 0.2591702279202279 0  0 0.3125 0  0.2094429575680048 0.3936361846162499 0  0.836666296419157 0.607917407161686 0  0.6875 1 0  0.214261555450504 0.6492551722020035 0  0 0.4375 0  0.07731537126068377 0.40625 0  0.3427725432967068 0.4879566233699599 0  0.3550792513951871 0.3331953632609953 0  0.4462473953896857 0.2887834789342508 0  0.4747801464819794 0.417386052030127 0  0.8229836475148948 0.4443292349237342 0  0.7322605135514757 0.8199240278289671 0  0.6756431877205955 0.5468989748126787 0  0.1968419507215863 0.5194573482612496 0  0.3285590277777778 0.9345238095238095 0  0.8125 1 0  0.4198917601920009 0.5134893045331258 0  0.5232405503206691 0.2595791787880157 0  1 0.9375 0  0.1987510870015086 0.3025185951894431 0  0.5625 1 0  0.6005390654136388 0.9228110509230952 0  0.6411254848194414 0.07704872765442942 0  0.3357233162523242 0.1855113224530532 0  0.6730653396610877 0.6393887462324165 0  0.310966987234063 0.6240019765311626 0  0.7368737836204349 0.07457755202327881 0  0.6192316414418171 0.1485238406378594 0  0.5432429670607106 0.678552703844006 0  0.4754371679695679 0.7103946803120881 0  0.07501324890749672 0.3043839897335739 0  0.5358146975860403 0.5688321463205916 0  0.3115271739500156 0.3982137365971444 0  0.3625191397122174 0.0767854603650549 0  0.5024029442563831 0.1264128223758444 0  0.4375 0 0  0.4699946908887376 0.06379961173775725 0  0.9375 0.71875 0  0.9272105898044465 0.635671179608893 0  0.9375 1 0  0.6690971819568612 0.9331530898202766 0  0.1073454944778885 0.7499206387638554 0  0.8699082999280406 0.2232403652524313 0  0.5773118091863964 0.3548027349159383 0  0.1354166666666667 0.1428571428571428 0  0.3125 0 0  0.8241684193077341 0.9257452995055244 0  0.4352314948354036 0.3586940847489378 0  0.4351301473778832 0.5819726043539077 0  0.8073232928518163 0.3419398170341962 0  0.7775949246947366 0.1298519409204575 0  0.6875 0 0  0.7413513991851041 0.457933324954483 0  0.939453125 0.841796875 0  0.5630355154606987 0.8171875156478349 0  0.9345238095238095 0.3461466592368577 0  0.9375 0 0  1 0.0625 0  0.0625 1 0  0 0.9375 0  0.06552178593177167 0.4969053669623468 0  0.1424866619031703 0.4130277709291224 0  0.1275287182444726 0.5422946908002588 0  0.2637686595586339 0.06413888464529549 0  0.2524263535491086 0.1697437503243817 0  0.7367218397988525 0.6888573970660841 0  0.0625 0 0  0 0.0625 0  0.8463594539285995 0.7578283617857982 0  0.3128751192101563 0.2851997374369947 0  0.4015281788351144 0.1806421385113692 0  0.1910251795116588 0.4553332197174453 0  0.287797471442006 0.5222621440543902 0  0.3962628745986055 0.8097380085535307 0  0.3505895299554843 0.7304878890838692 0  0.5019151500495276 0.9356042615328103 0  0.9374389419410134 0.4999931039076005 0  0.3125 1 0  0.1875 1 0  1 0.5625 0  0.4375 1 0  1 0.3125 0  1 0.4375 0  0.8125 0 0  1 0.1875 0  0.5625 0 0  0.1875 0 0  0 0.1875 0  0 0.5625 0  0 0.6875 0  0 0.8125 0  1 0.6875 0  1 0.8125 0  0.8021696218581627 0.6612893947866073 0  0.06154922295426143 0.6239401126946708 0  0.9359375 0.9359375 0  0.4666158024849896 0.7691515918155014 0  0.2318201265217025 0.7064974250277525 0  0.1565954253579966 0.6635489312486841 0  0.1598132503680848 0.7787147500325552 0  0.3146529991605639 0.8510876378205265 0  0.1461873209418733 0.05982804528877814 0  0.06109554988524315 0.2446551776247686 0  0.8054950308560754 0.5564226538848541 0  0.470541749491976 0.8853316336952531 0  0.6948472567465137 0.4042308563372457 0  0.8802828472348889 0.4658893256343853 0  0.6788075634946739 0.7974194205806069 0  0.2155048659603867 0.2428201584940968 0  0.8131223143423806 0.2132171049028394 0  0.4330798005432235 0.6671274900735726 0  0.6015279126162613 0.2187368078743274 0  0.8061636571464289 0.8703766630361714 0  0.7008230445061776 0.3478568388444072 0  0.8638466246958771 0.3147095987735538 0  0.204801534004265 0.8789209409594009 0  0.2449006736431132 0.9424182882803838 0  0.7611268409371427 0.2643056884799992 0  0.7552800864046191 0.7678006649959446 0  0.5983639638906616 0.864113435029236 0  0.1956559506814437 0.577281203577426 0  0.3527670268164207 0.1320469097565204 0  0.7530364577483248 0.3262386077083089 0  0.4535919187979363 0.4690107087451527 0  0.8824869791666666 0.8336588541666666 0  0.8814453125 0.9451171875 0  0.5582987942628019 0.622421666543858 0  0.6817532446064828 0.6939001801354731 0  0.3830295138888889 0.9450968952922078 0  0.4140603937012541 0.05211333372716105 0  0.5535864501303013 0.3060591985391672 0  0.6560130086346878 0.2729726562211558 0  0.890203140221684 0.5948314305427268 0  0.7043857725999024 0.593980890020804 0  0.5105843922695152 0.8016828014338627 0  0.05365910753708378 0.7315110031682004 0  0.616904573672261 0.4621186633436136 0  0.5338511646455415 0.387875898899613 0  0.5231769258947843 0.4477682463140762 0  0.650302973237622 0.7370722302085519 0  0.3927483139621257 0.4662414504529014 0  0.8034595960585199 0.4972538342758211 0  0.7738337841682438 0.9496376207663251 0  0.7193737507158268 0.954685447650112 0  0.482525916480686 0.5528257169991676 0  0.2533501157346781 0.2809495420003238 0  0.3118487924482243 0.5702930126570319 0  0.6257598847669529 0.4104163315430518 0  0.1354166666666667 0.1955605158730158 0  0.04166666666666666 0.15625 0  0.3956448985530264 0.6174149462065157 0  0.8102897701818546 0.3938784238208349 0  0.2641154190013625 0.8344469561943118 0  0.642852220770013 0.5068794586563659 0  0.05271458179508221 0.355846947336007 0  0.7021551360070266 0.8921457280225779 0  0.5692125776683765 0.1328512638850284 0  0.5206162811937602 0.04865158770992991 0  0.6001838442201555 0.04540556991297563 0  0.2597716608242787 0.4118346398477178 0  0.4040584599473195 0.3179589136784675 0  0.1480337679295207 0.8941560631483065 0  0.1344356707112281 0.9466251177415842 0  0.7114696411829317 0.4983917389078826 0  0.7585704698442475 0.5751926345944629 0  0.2189131956390871 0.04022068508159698 0  0.2476935455192043 0.1123642267635843 0  0.185995005654517 0.1365524537205238 0  0.6223414373308711 0.643380839165121 0  0.5732602596637543 0.7190051747306219 0  0.268358222364537 0.6586246524467934 0  0.3265879848129173 0.2369791782191225 0  0.1267095595787346 0.7034787238999181 0  0.1115202922226038 0.6421997933884982 0  0.3128688392940203 0.07260997451790079 0  0.550724900485678 0.9253360991633187 0  0.7142608810459105 0.2384904702214873 0  0.7045869185243887 0.1871826897887429 0  0.890625 0.734375 0  0.953125 0.765625 0  0.2111812642821677 0.8286209446459138 0  0.9590293078204457 0.09375 0  0.953431269039847 0.1435719386408004 0  0.04097069217955424 0.90625 0  0.04656873096015299 0.8564280613591996 0  0.1078743037981226 0.8541621766048062 0  0.8921256962018773 0.1458378233951939 0  0.8521576979194619 0.1084496634207678 0  0.8655663982740958 0.05464346096571447 0  0.04005659640905543 0.09375 0  0.1001448316533417 0.04246776244228261 
[...]
<CellData  Scalars="f_8394-4"> 
<DataArray  type="Float64"  Name="f_8394-4"  format="ascii">7.6247347984842184e-01   4.0327778960994204e-01   4.8254742326657030e-01   2.4978572244100297e-01   6.3493263887900087e-01   3.8218140277462509e-01   7.7294855080348801e-01   9.0428179846388135e-01   8.0453700291620001e-01   6.5883520040862109e-01   4.9575533011737444e-01   9.9959388075717093e-01   9.9975855394513680e-01   9.9358107978687504e-01   9.9585926501476330e-01   9.5892070397669171e-01   9.8190253536753958e-01   7.7209340609132404e-01   8.5660771781256040e-01   7.2874028990745177e-01   6.8546467278434908e-01   9.4684404861470173e-01   9.5570729457104497e-01   8.6516866030789574e-01   7.5320102832425351e-01   9.2907274056157696e-01   1.0965367710753075e-01   7.8089465995222018e-01   9.0635212329025650e-01   6.7139255134821141e-01   9.1272142757433206e-01   9.2578405161316857e-01   8.0755631035051334e-01   9.9891366516080460e-01   5.4592146624537852e-01   6.1150533409581398e-01   8.2186862945410666e-01   8.9134507810526087e-01   6.9142467579894196e-01   7.4592529693482967e-01   7.3231049171299711e-01   8.2693225409348281e-01   9.8735612408764151e-01   9.9453742730355266e-01   3.9201443717124540e-01   9.9851134257071938e-01   9.8152457431875806e-01   2.7396806763234738e-01   9.8051576580548183e-01   9.9680103904929485e-01   9.9198078118677369e-01   9.7326266523985294e-01   7.1968956267301543e-01   5.8772617132720961e-01   6.3871455371081731e-01   9.9752007783259222e-01   9.6120573616359617e-01   6.9411194712951163e-01   5.0732692379752331e-01   8.3757709034185479e-01   8.7507150800395939e-01   7.7793330352834811e-01   3.7455649832307214e-01   6.7086369949323932e-01   5.8438045399496774e-01   9.1759267322048443e-01   8.5555239571826946e-01   8.2700282295956262e-01   8.9387130059142095e-01   9.9715255253343760e-01   9.9558006526725074e-01   9.9850828768866917e-01   4.6747654599688049e-01   8.6456899545167576e-01   9.6435033378901958e-01   9.5271822118141203e-01   9.8002525047018263e-01   9.2961894285826874e-01   9.3638514867542710e-01   7.0603873380593019e-01   6.6073805856835077e-01   6.6223320158644605e-01   7.0952936984087456e-01   9.2918532910164797e-01   9.1856550167899809e-01   7.9028546609054440e-01   8.7609279488795577e-01   9.4063749399181729e-01   9.1039468278769864e-01   8.1528997847056928e-01   7.0919935963621894e-01   7.9344173589765166e-01   2.8534156235566227e-01   3.0278862527150158e-01   4.2930508317805116e-01   4.5343240576821453e-01   4.9474740121996619e-01   9.9090682435238331e-01   9.9650704740438478e-01   5.7008266934522156e-01   5.3243418248049312e-01   6.8960434839023010e-01   6.1603808724134879e-01   9.5425870822785352e-01   9.3519955603332039e-01   9.2064633002459006e-01   8.9640052935766223e-01   8.0258229383497903e-01   7.2603318301446818e-01   8.1048794766499721e-01   8.3380816082913389e-01   8.7058759940922581e-01   8.9800454065554070e-01   7.6924460586055243e-01   7.4691077676247086e-01   8.1927139372204560e-01   8.1259710808745511e-01   9.3264333942105393e-01   9.9881033999568813e-01   9.9822088164276868e-01   9.7698115634821125e-01   9.8938051077421152e-01   7.3250420195293475e-01   8.3883471807983923e-01   5.8089501221080453e-01   5.9707333739113566e-01   9.8377123363899610e-01   9.9587511988290656e-01   9.7336130330150472e-01   9.0380267814772841e-01   9.2042022390541578e-01   9.2680739813353064e-01   9.9157464802759421e-01   9.8439509518821322e-01   9.4246209916785040e-01   9.6961117419549903e-01   9.5505613510580156e-01   9.0746887892036554e-01   7.6391526903545326e-01   8.3500959053180768e-01   4.2086483373287076e-01   3.6485717123507644e-01   4.0890125810248484e-01   3.2011923535134873e-01   6.2262234648196646e-01   5.8514715696209141e-01   1.0004194420389618e+00   9.8910838533781364e-01   9.9796724467994724e-01   9.9968516490975534e-01   8.0498675775348938e-01   7.5931976370107113e-01   4.6314037635906852e-01   4.0257003579801404e-01   5.0392125069669091e-01   7.3850253466551430e-01   7.1234314713696301e-01   6.6304564297837454e-01   7.1233173013873041e-01   7.3698361393739276e-01   6.5268030547084666e-01   8.0567815792803377e-01   8.5484748967771196e-01   9.6967431345936528e-01   9.5540477782000821e-01   9.9971671642727555e-01   9.9917593692115791e-01   9.4772531014614880e-01   8.7475571817246889e-01   5.6135616239334363e-01   5.6394367962375624e-01   9.4849775887303411e-01   9.6117951681555980e-01   9.5290266714681771e-01   9.7506069137285434e-01   8.5649448631747838e-01   8.6753360280776137e-01   8.0748045847756889e-01   7.1213680089989073e-01   9.6113718158339234e-01   9.6916262995210778e-01   4.9815068296149395e-01   4.8707439968513677e-01   9.9409033324885632e-01   1.0004033621922872e+00   1.0004235672414279e+00   1.0001843211546986e+00   7.5774232533642105e-01   5.3291208876154339e-01   5.2568881873423989e-01   9.6204581232044595e-01   9.7059004946434979e-01   7.8833451337056737e-01   7.7431903828535509e-01   6.7207112094054300e-01   7.1604111996348530e-01   6.8557667057257043e-01   7.3129880317127793e-01   9.4310967082572372e-01   9.0086875695102786e-01   8.7863153866027344e-01   9.1567641027822588e-01   3.0625278956662622e-01   4.8094955822901447e-01   9.0293025218577927e-01   9.1585408601372864e-01   7.2739604719552486e-01   6.5523132851807120e-01   4.6346794634872934e-01   5.5895931096542295e-01   5.6786533206640444e-01   5.1569217547240032e-01   4.4986949226059775e-01   4.8331720488181640e-01   4.1667044151858607e-01   9.9944959648521015e-01   9.9534617599299524e-01   1.0004236769025381e+00   9.6306136888807703e-01   9.9234265440122149e-01   7.3580242829551534e-01   7.5519116268524134e-01   8.8138804578661811e-01   9.1816209274173211e-01   8.4799213878483592e-01   7.2724399990000532e-01   2.8268881394422329e-01   2.5342799938690719e-01   9.9496442142989316e-01   9.8574355844094863e-01   6.4416285354388236e-01   6.5624291373123966e-01   8.7476163996523126e-01   8.1999710419652150e-01   8.7518454442838578e-01   9.2762405608283405e-01   8.5554030555502769e-01   8.0707071425634480e-01   6.4327710300172725e-01   9.2058554455505270e-01   8.8672013445870468e-01   9.7767798156544317e-01   9.7699762299774850e-01   9.3998997631896042e-01   9.6675298311467628e-01   9.6212590739540815e-01   8.6092949539425845e-01   8.2407257776284615e-01   8.7825293139006111e-01   4.5084877260415407e-01   5.5468934994047292e-01   4.9523570438920378e-01   4.6676189332133200e-01   6.4123814997153372e-01   6.9886155569179242e-01   3.0426131797445266e-01   3.4487570839220111e-01   3.5507592410591698e-01   4.2425380706861221e-01   9.8569212535393902e-01   9.9154976229976044e-01   7.9419584467941187e-02   8.4790995846342559e-02   1.3153940503270681e-01   9.9612220724757539e-01   9.9185656529079858e-01   5.4557400182392901e-01   4.8471828700657160e-01   4.8056547462693999e-01   6.2954457057777113e-01   6.9038554703690957e-01   6.8691163085078255e-01   7.0134179271392794e-01   7.5303263939968879e-01   9.1189037510185156e-01   9.3995793013191997e-01   8.7146796890260714e-01   8.8687108310432328e-01   9.9858438074436540e-01   9.9698145140243155e-01   9.8177724092409768e-01   9.3185535386776563e-01   8.7078964180386331e-01   9.0147816699153660e-01   9.9912725197100494e-01   9.7673760612085581e-01   9.9620776329969374e-01   9.5295611284954140e-01   9.5038002735458516e-01   9.7576097540948603e-01   8.0277225020107967e-01   9.0514757643788901e-01   8.9264291598698653e-01   5.9546603947991783e-01   5.1866084624439934e-01   2.1326275437266157e-01   2.7825836704876822e-01   6.0976426895789715e-01   6.6921945098762325e-01   7.1107642604021848e-01   7.5641937132839254e-01   7.7194391085579317e-01   9.9836751931595702e-01   9.8583470311564370e-01   9.9660658749266906e-01   9.8662688154329958e-01   6.0875569087959314e-01   9.4297244561682436e-01   9.5192396586738559e-01   9.5133652972889737e-01   9.6506193006470742e-01   8.7937176616640667e-01   8.1171660525517719e-01   7.3125884839517385e-01   7.1447468756206733e-01   8.4304885841541610e-01   8.4474518917472308e-01   9.2432394200593226e-01   9.3656035993160192e-01   1.7993039222689974e-01   2.4207755086512558e-01   2.5902843905226564e-01   9.8142094551169001e-01   9.7145811850180275e-01   9.5515408494702125e-01   9.5001801177563094e-01   9.4071814408776822e-01   9.0516234623213643e-01   9.8026577737170140e-01   9.9226437761481467e-01   9.9188235224104926e-01   9.8778967717786426e-01   3.7915552899942351e-01   4.8912398794912076e-01   8.0396923429945488e-01   8.6295780354154505e-01   8.6436561552116487e-01   8.8709866496162293e-01   7.3012364845195010e-01   7.1677399102836048e-01   9.9962406103731194e-01   9.9885632746244446e-01   8.3801066250457190e-01   8.2840006281616396e-01   9.2470669285122908e-01   9.1288009042736640e-01   8.8533760933296912e-01   9.2532298824526016e-01   9.2639711442828476e-01   8.8516054654326903e-01   8.3735585252400579e-01   9.9322913540134872e-01   9.9837321777910182e-01   9.9433285674708904e-01   9.9648815802579482e-01   7.8757679515255807e-01   6.7753275267397250e-01   4.6339460100665875e-01   3.4076414203615146e-01   8.8356091609134169e-01   8.8315386865064072e-01   7.8497769634039427e-01   8.0791005717179942e-01   9.9701496542080048e-01   9.8908379220120124e-01   9.6011058216360246e-01   9.6217326743136666e-01   9.6623746380239395e-01   9.9046774495714107e-01   9.7545309452618167e-01   9.7664253824637748e-01   7.9406997238643018e-01   7.2862441646867560e-01   7.9617176285449975e-01   7.8110767016458849e-01   9.9166911715343109e-01   9.9778723215643528e-01   9.6212054591255136e-01   9.7705403725624118e-01   9.7218010255743692e-01   9.7908766074989773e-01   6.5040159885798876e-01   6.8957033135211454e-01   8.8669864674866561e-01   8.6821641353602286e-01   8.0549453041344088e-01   8.1220115547382377e-01   8.6567641545572716e-01   8.5410075992231871e-01   9.8773943684406296e-01   9.7363283097476783e-01   7.4331991613176696e-01   7.2559307743626644e-01   9.7146041199473787e-01   9.5743978762338677e-01   9.9977833919060777e-01   9.9804362184088879e-01   9.9727967894096825e-01   8.7353496251180729e-01   8.9772523633989887e-01   5.2762531147217429e-01   5.1874058680786694e-01   7.8747051474251351e-01   8.3891376673273321e-01   8.3382676834680958e-01   8.4938340863597617e-01   2.4525428815475819e-01   3.5955086582570872e-01   2.4179206535932921e-01   2.0772638026066342e-01   8.3434269629054425e-01   8.3383573810145584e-01   9.5438333906217410e-01   9.3154684581832436e-01   8.6789328280019551e-01   8.7601528597433109e-01   9.3314578483487753e-01   9.1534868991728691e-01   4.1563474687822866e-01   4.3822901793813712e-01   9.9985358502479493e-01   9.9959577990822412e-01   5.9855825071740432e-01   5.7845378074202281e-01   6.1272431402555205e-01   6.1022929235982015e-01   5.5519336029829880e-01   6.3928853512446349e-01   6.1589315676388823e-01   6.2621469540423813e-01   8.5190275486227840e-01   8.3362758192094744e-01   8.9204188682479857e-01   8.8479974755008139e-01   9.1940481420690690e-01   9.6452529821069299e-01   9.6732803466740991e-01   9.7027291152860795e-01   3.0050104433869990e-01   2.8427800759164157e-01   2.7854279011603922e-01   3.8894916522792028e-01   3.3800951806644819e-01   3.4315803294534181e-01   9.4666217497241278e-01   9.5430187093603236e-01   9.8288934612699963e-01   9.6767002536071756e-01   8.3440754783017379e-01   7.7521258321015341e-01   5.7882740541050881e-01   4.9619419402519294e-01   7.0097730927391666e-01   7.4902048092224383e-01   6.9880303990330928e-01   6.8714085856858009e-01   4.2590719421867779e-01   3.7891841852080838e-01   9.9594228784842487e-01   9.9532718638871676e-01   8.4249195165570490e-01   8.1474707608935104e-01   8.3658688133202475e-01   8.2952171193334601e-01   9.9871965921177808e-01   1.0004267614339031e+00   9.7707722266318631e-01   9.9170889079241953e-01   8.5094347921348978e-01   8.2465289045308554e-01   8.8010921813389476e-01   8.3499182819085316e-01   9.2916752144998671e-01   7.9877631348795064e-01   8.2651813574590727e-01   7.6153205630369025e-01   8.2188400163432829e-01   8.0724769226784565e-01   9.0828672796906240e-01   8.6514368130578068e-01   8.1334541647916703e-01   8.1246931470376393e-01   7.8291059392362305e-01   8.5611475545530025e-01   2.2558079268497966e-01   2.1812633509658216e-01   1.6325279602073117e-01   1.3362033508457183e-01   8.2126421865714605e-01   8.5250694944090877e-01   8.3391117557986028e-01   9.6642955558269306e-01   9.4203895513961045e-01   7.6839101882972505e-01   6.7366576907530440e-01   7.2031472210969250e-01   6.1756601690894519e-01   5.5477120177299033e-01   5.0525750175922557e-01   6.6636145216975218e-01   6.2185314469406672e-01   7.7652784672716157e-01   7.9639001791311270e-01   9.4058021048033469e-01   9.2665359057440733e-01   7.2991067863643722e-01   6.6887488648614168e-01   2.0436294000791685e-01   2.6048740820984428e-01   9.2714460005171939e-01   7.3133871700087738e-01   7.1199828867956305e-01   9.6406530308508798e-01   9.2399482002815725e-01   9.8393330040705185e-01   9.6385582605976472e-01   7.9189930355927174e-01   8.4921672583084806e-01   8.1689439818331233e-01   8.4508351347919641e-01   8.3426359780834269e-01   8.2085744690318097e-01   9.9868531050973197e-01   9.9723423613703011e-01   7.5583606662314506e-01   7.3563106853684856e-01   8.9771367508291089e-01   9.1304330152362245e-01   7.4397082488629984e-01   7.6503256897904215e-01   5.1789700533310523e-01   5.4434030645453169e-01   9.1555924033032299e-01   8.9861540510314830e-01   8.0036125463659336e-01   8.6218118185240455e-01   8.7397674615265963e-01   9.3698232077982435e-01   3.5717957539227507e-01   3.7485978599635394e-01   9.7128082265781102e-01   9.6980277301703377e-01   9.7105900686564772e-01   9.5462157337602471e-01   4.8421568056457692e-01   5.2937074082162916e-01   9.8394655350871585e-01   9.8010734944753675e-01   3.5462853138401240e-01   2.9910874708160490e-01   6.2976779138016525e-01   6.5429023636700523e-01   6.4546589029928281e-01   6.9138791680492639e-01   9.9854457557999543e-01   1.0003000954611843e+00   1.0003974720704594e+00   9.9795532218829652e-01   9.7677554903260699e-01   9.7199511261994709e-01   8.1534401641043108e-01   8.1553072360498435e-01   8.7604692628535330e-01   9.1813484527205402e-01   9.2170155608269733e-01   9.2025396528096404e-01   9.8701535210551394e-01   6.3152734865123983e-01   5.9445525199036842e-01   4.9798628623823660e-01   5.7473342760994850e-01   1.0001759054967925e+00   9.9169986751432848e-01   9.9495624708935515e-01   6.9174494989670277e-01   7.2063182974270223e-01   6.2556727686704683e-01   6.1332808775554171e-01   8.3352740208842457e-01   8.6102436898584567e-01   1.0000619709865155e+00   1.0004203678241519e+00   6.9349175332937540e-01   6.8542831257974057e-01   1.0003273556238133e+00   9.9763768225730232e-01   9.9568098327640431e-01   9.9793161772878969e-01   8.7990206993585940e-01   8.6971596417384656e-01   9.5378412628804055e-01   9.5529458074896811e-01   8.1735932426208679e-01   8.0307425430832302e-01   3.2807840730409615e-01   3.9550830560878175e-01   3.2809569593704030e-01   3.4510693603676212e-01   4.8998574938346956e-01   4.5208052782010238e-01   6.6520423163282472e-01   4.7050297265899582e-01   9.9772588976985244e-01   9.9627513688345126e-01   9.9416120679045705e-01   9.8071094397504022e-01   9.9984781313538273e-01   9.8377504887369838e-01   9.7715533236288643e-01   9.9778668405328852e-01   9.9107955550431637e-01   7.0519294253330711e-01   6.7054107487652481e-01   9.6871351527397698e-01   9.6609967341197456e-01   1.0003016023820273e+00   1.0003075002361144e+00   8.5006355676719925e-01   8.8569384429299536e-01   5.5152265185361349e-01   5.6916786832213828e-01   9.8048453873158792e-01   9.9269945652060976e-01   9.4655416228549560e-01   9.2401892937906327e-01   7.3965406313517557e-01   7.6543722508203926e-01   1.8406691305768233e-01   2.3571283280245259e-01   7.8134621809053761e-01   7.9217173975559529e-01   9.9861194662932229e-01   5.5180852169463102e-01   5.4763653893536079e-01   6.4012063096086214e-01   5.8461686663212575e-01   6.2722730405521476e-01   6.2262404019729423e-01   6.2260503129311917e-01   6.5262355581353504e-01   8.6406973346034899e-01   9.1818681422982074e-01   9.5179573557532293e-01   9.5152692603054267e-01   9.2186437321425418e-01   9.1733668068248708e-01   8.7634746745744330e-01   8.9217916221519555e-01   9.4852596930096900e-01   9.4934408414125038e-01   8.0762981638851106e-01   8.0470645634794202e-01   4.9214661877732008e-01   4.4231803788481211e-01   6.5252143335318968e-01   6.5352416073804476e-01   6.9877414279445227e-01   6.7604716806572251e-01   7.5064297104848632e-01   7.1183981764725734e-01   9.5010299862146130e-01   9.5696430973133995e-01   4.8359114211266607e-01   4.3895321033360341e-01   6.8300534627070442e-01   6.6673316205140465e-01   9.9788212318118896e-01   9.9616430688962820e-01   9.3184015250237018e-01   9.0587515228419979e-01   9.9747819576386942e-01   1.0002692380280720e+00   1.6719418040908110e-01   2.6148760289638256e-01   4.3995759921672489e-01   9.3177117615643490e-01   9.5517564657354281e-01   9.5014324648463788e-01   9.3348968902696161e-01   8.8326353820051007e-01   9.0907099340895081e-01   9.8061837474918845e-01   9.8250925373142117e-01   9.9757565014892446e-01   7.4562184560953804e-01   7.1716988668752790e-01   4.8801027083491738e-01   4.9955149257182274e-01   8.0184795036728684e-01   8.2001528749544772e-01   8.2926170254219167e-01   7.8050446875932489e-01   7.1362370335244063e-01   6.7146073718407606e-01   4.3479136203918484e-01   4.7134029813927258e-01   9.3189597946871172e-01   9.4531530508551675e-01   4.2983936686699747e-01   4.2255114115964520e-01   7.4063362633666885e-01   7.9606521467737923e-01   6.5283246489712965e-01   6.2463979708929063e-01   9.4152474938597286e-01   9.3262636417690326e-01   4.2400036365466182e-01   3.9402286130843545e-01   8.1603502984273690e-01   8.5033170377597878e-01   7.9312602713785996e-01   7.9781899107652665e-01   9.3209813178118661e-01   9.3745129213687051e-01   7.1151518322834972e-01   7.4079859658691627e-01   6.4308352051180806e-01   6.4098672311368854e-01   9.8843517322246743e-01   9.9351398459856277e-01   1.0001643365680175e+00   1.0003813208188970e+00   6.4362920839492466e-01   5.9924482591650119e-01   6.9872052332952550e-01   6.8532944537221074e-01   8.2997065725368968e-01   8.0477603588647117e-01   9.7872455234633360e-01   9.8903624548197000e-01   9.8301357131603062e-01   9.8472374975082000e-01   1.0000848444073316e+00   1.0003706481250014e+00   9.9845010062725492e-01   9.8741156741154934e-01   2.3793262498026524e-01   2.9446585759176358e-01   8.7383796647699441e-01   8.5830110146384087e-01   8.7718663642358807e-01   8.5902035583379577e-01   9.3377071937463707e-01   9.4304254045195191e-01   9.6368487031575523e-01   9.7561180543737747e-01   6.2231030815193522e-01   5.9103497461900212e-01   9.2392194383169268e-01   8.8937987570590404e-01   5.5813082062627295e-01   5.4715644258745744e-01   3.6116782234570105e-01   2.9007883658617051e-01   9.1097574483772625e-01   9.0159382779544539e-01   6.8275651188556241e-01   7.5197860495359470e-01   6.7445102419434300e-01   7.1600594176757881e-01   7.1606530793943401e-01   7.1847304207436302e-01   7.3076736108861018e-01   7.3078733304249588e-01   9.5028083939994057e-01   9.4312510067460109e-01   6.1684115363938896e-01   6.5301482229270147e-01   9.7045108798545898e-01   9.7128164122462679e-01   7.4417320772957540e-01   7.6614040098273972e-01   4.6739132524034854e-01   5.1949815317965686e-01   8.0787089867814577e-01   7.9746846011540296e-01   9.3091331451814485e-01   9.3753025241113874e-01   5.1575587210572726e-01   4.5286948982972780e-01   9.9084369378346659e-01   9.8934690625952226e-01   8.0094035366430461e-01   7.7587794719230807e-01   9.8987357855306524e-01   9.9119113921748625e-01   9.5544329325208843e-01   9.5174787986508080e-01   9.8569139903572911e-01   9.8746800032586335e-01   4.5660657935501087e-01   4.3387437531263218e-01   8.2897231060242837e-01   8.1986648291783515e-01   3.5501600420407731e-01   7.1648855661722854e-01   7.491214