<?xml version="1.0"?>
<VTKFile type="UnstructuredGrid"  version="0.1"  >
<UnstructuredGrid>
<Piece  NumberOfPoints="1385" NumberOfCells="2640">
<Points>
<DataArray  type="Float64"  NumberOfComponents="3"  format="ascii">0 0 0  1 0 0  1 1 0  0 1 0  0.5 0 0  1 0.5 0  0.5 1 0  0 0.5 0  0.5 0.5 0  0 0.25 0  0.25 0 0  0.25 1 0  0 0.75 0  1 0.25 0  0.75 0 0  1 0.75 0  0.75 1 0  0.7083333333333333 0.2916666666666667 0  0.2916666666666666 0.7083333333333334 0  0.375 0.25 0  0.75 0.625 0  0.2569444444444444 0.4652777777777778 0  0.5366379310344828 0.7535919540229885 0  0.1875 0.1875 0  0.8125 0.8125 0  0.869047619047619 0.375 0  0.1450441919191919 0.6052714646464646 0  0.375 0.8690476190476191 0  0.5526960784313725 0.1825980392156862 0  0.8385416666666666 0.1614583333333334 0  0.1614583333333333 0.8385416666666667 0  0.6736111111111112 0.4652777777777778 0  0.1367521367521368 0.3477564102564102 0  0.6570970491253563 0.8648656830417855 0  0.5102479397556124 0.3386260301221938 0  0.3654513888888889 0.5737847222222222 0  0.6929750044954185 0.1362784921584263 0  0.388576102743835 0.411911725237599 0  0.6091269841269842 0.5942460317460317 0  0.875 0.6875 0  0.427278890279516 0.119889445139758 0  0.8544456845238095 0.5213913690476191 0  0.125 0 0  0 0.125 0  1 0.875 0  0.875 1 0  0.1280008648150532 0.4769292340226777 0  0.2695382451711197 0.3321750950221553 0  0.7031567235715964 0.7447810921428012 0  0.625 0 0  0.375 0 0  0.125 1 0  0.875 0 0  0 0.375 0  0 0.625 0  1 0.375 0  0.375 1 0  1 0.125 0  0 0.875 0  0.625 1 0  1 0.625 0  0.2979288363930608 0.1201429454643536 0  0.410919540229885 0.7484605911330049 0  0.5325041980395562 0.878905151526474 0  0.4831670727569156 0.6331060043826487 0  0.1735997378973042 0.7204747378973043 0  0.2534919507575758 0.5772372159090909 0  0.2633928571428572 0.8876488095238095 0  0.8199404761904761 0.2730654761904762 0  0.75830270586982 0.3919383189517417 0  0.5750282248382511 0.4237522353023667 0  0.6008360210023379 0.2794828358598495 0  0.08163442644334186 0.6821295860397322 0  0.08333333333333333 0.1875 0  0.2028380815996574 0.08844602719988583 0  0.2766521142611967 0.2325436572164097 0  0.90625 0.78125 0  0.890625 0.890625 0  0.7545696325008384 0.8973565441669461 0  0.5625 0.08086590340834317 0  0.09077380952380953 0.09077380952380952 0  0.4610923478694773 0.209034015149656 0  0.7542527598351648 0.5248380520595106 0  0.6459235536037465 0.3619913988405765 0  0.7560381768882634 0.20506142233852 0  0.07073252688172042 0.8125 0  0.0924753097241701 0.9078102849914793 0  0.9292674731182795 0.1875 0  0.9075246902758297 0.09218971500852073 0  0.8125 0.07073252688172045 0  0.2400955776842301 0.7869705776842302 0  0.9121050213379069 0.2781978201831695 0  0.7916878157143976 0.7239689078571988 0  0.9345238095238094 0.4375 0  0.4375 0.9345238095238095 0  0.3725616989755203 0.6651895248862173 0  0.06536271996350887 0.5625 0  0.9348362560379583 0.5625 0  0.456646798987055 0.8277247094351965 0  0.1875 0.9355758238725954 0  0.6169761231634859 0.6939779188977889 0  0.6226854751147515 0.7827911461419014 0  0.3305695598137626 0.7901697871282585 0  0.5865305325818898 0.5101085479043448 0  0.6622701297028378 0.2177663989757395 0  0.1354166666666667 0.2591702279202279 0  0 0.3125 0  0.2094429575680048 0.3936361846162499 0  0.836666296419157 0.607917407161686 0  0.6875 1 0  0.214261555450504 0.6492551722020035 0  0 0.4375 0  0.07731537126068377 0.40625 0  0.3427725432967068 0.4879566233699599 0  0.3550792513951871 0.3331953632609953 0  0.4462473953896857 0.2887834789342508 0  0.4747801464819794 0.417386052030127 0  0.8229836475148948 0.4443292349237342 0  0.7322605135514757 0.8199240278289671 0  0.6756431877205955 0.5468989748126787 0  0.1968419507215863 0.5194573482612496 0  0.3285590277777778 0.9345238095238095 0  0.8125 1 0  0.4198917601920009 0.5134893045331258 0  0.5232405503206691 0.2595791787880157 0  1 0.9375 0  0.1987510870015086 0.3025185951894431 0  0.5625 1 0  0.6005390654136388 0.9228110509230952 0  0.6411254848194414 0.07704872765442942 0  0.3357233162523242 0.1855113224530532 0  0.6730653396610877 0.6393887462324165 0  0.310966987234063 0.6240019765311626 0  0.7368737836204349 0.07457755202327881 0  0.6192316414418171 0.1485238406378594 0  0.5432429670607106 0.678552703844006 0  0.4754371679695679 0.7103946803120881 0  0.07501324890749672 0.3043839897335739 0  0.5358146975860403 0.5688321463205916 0  0.3115271739500156 0.3982137365971444 0  0.3625191397122174 0.0767854603650549 0  0.5024029442563831 0.1264128223758444 0  0.4375 0 0  0.4699946908887376 0.06379961173775725 0  0.9375 0.71875 0  0.9272105898044465 0.635671179608893 0  0.9375 1 0  0.6690971819568612 0.9331530898202766 0  0.1073454944778885 0.7499206387638554 0  0.8699082999280406 0.2232403652524313 0  0.5773118091863964 0.3548027349159383 0  0.1354166666666667 0.1428571428571428 0  0.3125 0 0  0.8241684193077341 0.9257452995055244 0  0.4352314948354036 0.3586940847489378 0  0.4351301473778832 0.5819726043539077 0  0.8073232928518163 0.3419398170341962 0  0.7775949246947366 0.1298519409204575 0  0.6875 0 0  0.7413513991851041 0.457933324954483 0  0.939453125 0.841796875 0  0.5630355154606987 0.8171875156478349 0  0.9345238095238095 0.3461466592368577 0  0.9375 0 0  1 0.0625 0  0.0625 1 0  0 0.9375 0  0.06552178593177167 0.4969053669623468 0  0.1424866619031703 0.4130277709291224 0  0.1275287182444726 0.5422946908002588 0  0.2637686595586339 0.06413888464529549 0  0.2524263535491086 0.1697437503243817 0  0.7367218397988525 0.6888573970660841 0  0.0625 0 0  0 0.0625 0  0.8463594539285995 0.7578283617857982 0  0.3128751192101563 0.2851997374369947 0  0.4015281788351144 0.1806421385113692 0  0.1910251795116588 0.4553332197174453 0  0.287797471442006 0.5222621440543902 0  0.3962628745986055 0.8097380085535307 0  0.3505895299554843 0.7304878890838692 0  0.5019151500495276 0.9356042615328103 0  0.9374389419410134 0.4999931039076005 0  0.3125 1 0  0.1875 1 0  1 0.5625 0  0.4375 1 0  1 0.3125 0  1 0.4375 0  0.8125 0 0  1 0.1875 0  0.5625 0 0  0.1875 0 0  0 0.1875 0  0 0.5625 0  0 0.6875 0  0 0.8125 0  1 0.6875 0  1 0.8125 0  0.8021696218581627 0.6612893947866073 0  0.06154922295426143 0.6239401126946708 0  0.9359375 0.9359375 0  0.4666158024849896 0.7691515918155014 0  0.2318201265217025 0.7064974250277525 0  0.1565954253579966 0.6635489312486841 0  0.1598132503680848 0.7787147500325552 0  0.3146529991605639 0.8510876378205265 0  0.1461873209418733 0.05982804528877814 0  0.06109554988524315 0.2446551776247686 0  0.8054950308560754 0.5564226538848541 0  0.470541749491976 0.8853316336952531 0  0.6948472567465137 0.4042308563372457 0  0.8802828472348889 0.4658893256343853 0  0.6788075634946739 0.7974194205806069 0  0.2155048659603867 0.2428201584940968 0  0.8131223143423806 0.2132171049028394 0  0.4330798005432235 0.6671274900735726 0  0.6015279126162613 0.2187368078743274 0  0.8061636571464289 0.8703766630361714 0  0.7008230445061776 0.3478568388444072 0  0.8638466246958771 0.3147095987735538 0  0.204801534004265 0.8789209409594009 0  0.2449006736431132 0.9424182882803838 0  0.7611268409371427 0.2643056884799992 0  0.7552800864046191 0.7678006649959446 0  0.5983639638906616 0.864113435029236 0  0.1956559506814437 0.577281203577426 0  0.3527670268164207 0.1320469097565204 0  0.7530364577483248 0.3262386077083089 0  0.4535919187979363 0.4690107087451527 0  0.8824869791666666 0.8336588541666666 0  0.8814453125 0.9451171875 0  0.5582987942628019 0.622421666543858 0  0.6817532446064828 0.6939001801354731 0  0.3830295138888889 0.9450968952922078 0  0.4140603937012541 0.05211333372716105 0  0.5535864501303013 0.3060591985391672 0  0.6560130086346878 0.2729726562211558 0  0.890203140221684 0.5948314305427268 0  0.7043857725999024 0.593980890020804 0  0.5105843922695152 0.8016828014338627 0  0.05365910753708378 0.7315110031682004 0  0.616904573672261 0.4621186633436136 0  0.5338511646455415 0.387875898899613 0  0.5231769258947843 0.4477682463140762 0  0.650302973237622 0.7370722302085519 0  0.3927483139621257 0.4662414504529014 0  0.8034595960585199 0.4972538342758211 0  0.7738337841682438 0.9496376207663251 0  0.7193737507158268 0.954685447650112 0  0.482525916480686 0.5528257169991676 0  0.2533501157346781 0.2809495420003238 0  0.3118487924482243 0.5702930126570319 0  0.6257598847669529 0.4104163315430518 0  0.1354166666666667 0.1955605158730158 0  0.04166666666666666 0.15625 0  0.3956448985530264 0.6174149462065157 0  0.8102897701818546 0.3938784238208349 0  0.2641154190013625 0.8344469561943118 0  0.642852220770013 0.5068794586563659 0  0.05271458179508221 0.355846947336007 0  0.7021551360070266 0.8921457280225779 0  0.5692125776683765 0.1328512638850284 0  0.5206162811937602 0.04865158770992991 0  0.6001838442201555 0.04540556991297563 0  0.2597716608242787 0.4118346398477178 0  0.4040584599473195 0.3179589136784675 0  0.1480337679295207 0.8941560631483065 0  0.1344356707112281 0.9466251177415842 0  0.7114696411829317 0.4983917389078826 0  0.7585704698442475 0.5751926345944629 0  0.2189131956390871 0.04022068508159698 0  0.2476935455192043 0.1123642267635843 0  0.185995005654517 0.1365524537205238 0  0.6223414373308711 0.643380839165121 0  0.5732602596637543 0.7190051747306219 0  0.268358222364537 0.6586246524467934 0  0.3265879848129173 0.2369791782191225 0  0.1267095595787346 0.7034787238999181 0  0.1115202922226038 0.6421997933884982 0  0.3128688392940203 0.07260997451790079 0  0.550724900485678 0.9253360991633187 0  0.7142608810459105 0.2384904702214873 0  0.7045869185243887 0.1871826897887429 0  0.890625 0.734375 0  0.953125 0.765625 0  0.2111812642821677 0.8286209446459138 0  0.9590293078204457 0.09375 0  0.953431269039847 0.1435719386408004 0  0.04097069217955424 0.90625 0  0.04656873096015299 0.8564280613591996 0  0.1078743037981226 0.8541621766048062 0  0.8921256962018773 0.1458378233951939 0  0.8521576979194619 0.1084496634207678 0  0.8655663982740958 0.05464346096571447 0  0.04005659640905543 0.09375 0  0.1001448316533417 0.04246776244228261 
[...]
<CellData  Scalars="f_8394-4"> 
<DataArray  type="Float64"  Name="f_8394-4"  format="ascii">7.6277456417576961e-01   4.0343909281990503e-01   4.8273855042577574e-01   2.4987636132596949e-01   6.3519330917551853e-01   3.8233700571417567e-01   7.7324827210966973e-01   9.0463864915047820e-01   8.0485151728758730e-01   6.5910451568485107e-01   4.9594331052030399e-01   9.9998701671954859e-01   1.0001552696890452e+00   9.9397411134051439e-01   9.9625697297138893e-01   9.5930238971413362e-01   9.8229042729796978e-01   7.7240212757206450e-01   8.5694921529031010e-01   7.2903359695635894e-01   6.8573583710789510e-01   9.4721644830992602e-01   9.5608752593899704e-01   8.6551532544255594e-01   7.5348834668592324e-01   9.2943982980204243e-01   1.0965304682494423e-01   7.8120342982234836e-01   9.0670884798881601e-01   6.7166495834857021e-01   9.1307904890292224e-01   9.2615053836054850e-01   8.0787172193380541e-01   9.9931209823452793e-01   5.4613251014387310e-01   6.1175236092198759e-01   8.2218861096240703e-01   8.9169961836487699e-01   6.9169472492759765e-01   7.4621935353875568e-01   7.3260107801991214e-01   8.2725829658741323e-01   9.8774872582671880e-01   9.9493383505601940e-01   3.9216891617697575e-01   9.9889422449747378e-01   9.8191417888720944e-01   2.7407391324854474e-01   9.8088552505259263e-01   9.9719693856668412e-01   9.9237188685372246e-01   9.7364704627650367e-01   7.1997658747131965e-01   5.8795073982071189e-01   6.3896907112586421e-01   9.9791350166840287e-01   9.6159003672423493e-01   6.9437909375551354e-01   5.0752474108185641e-01   8.3790602047351637e-01   8.7541892109189823e-01   7.7823043656247881e-01   3.7468775874522126e-01   6.7113054814243955e-01   5.8459534807771274e-01   9.1795393619220289e-01   8.5589104983004916e-01   8.2732776542045128e-01   8.9422570851793626e-01   9.9753846014807668e-01   9.9597353875045491e-01   9.9890116892417646e-01   4.6766302796561593e-01   8.6491063118549516e-01   9.6473565332764066e-01   9.5309800789266530e-01   9.8041389122696865e-01   9.2998745513274739e-01   9.3676095659877301e-01   7.0631958504024295e-01   6.6100376568587382e-01   6.6249179244743417e-01   7.0981323268024599e-01   9.2955689522438179e-01   9.1893029661635650e-01   7.9059517154987746e-01   8.7643862690637309e-01   9.4100953279245558e-01   9.1075182573779800e-01   8.1561383565610346e-01   7.0947929487242456e-01   7.9375647818880946e-01   2.8544077858478600e-01   3.0291253525556860e-01   4.2948407464025606e-01   4.5360679926935565e-01   4.9493852825901946e-01   9.9128747093497871e-01   9.9690278558408596e-01   5.7031287853940693e-01   5.3263475380568381e-01   6.8987638022869235e-01   6.1628128681675087e-01   9.5463866157329724e-01   9.3557057917749653e-01   9.2101385064632313e-01   8.9675246529149721e-01   8.0289758239597664e-01   7.2631674634906984e-01   8.1080577507406570e-01   8.3414004543126519e-01   8.7093392728294505e-01   8.9835902381369614e-01   7.6955456135101696e-01   7.4720419766968604e-01   8.1958816706738680e-01   8.1291723238039659e-01   9.3301032699892983e-01   9.9920874052574271e-01   9.9861534614388181e-01   9.7737016186780035e-01   9.8977049805931705e-01   7.3279075419843998e-01   8.3916084517086886e-01   5.8112147456279717e-01   5.9731117529062749e-01   9.8416262213670869e-01   9.9626937830334628e-01   9.7374208698752618e-01   9.0415940202439515e-01   9.2078622980105829e-01   9.2717664684365098e-01   9.9196312660252706e-01   9.8478529621296140e-01   9.4282923691498355e-01   9.6999392898488490e-01   9.5543677119580139e-01   9.0783105069963987e-01   7.6421442059283184e-01   8.3534631306303875e-01   4.2103770924582745e-01   3.6499393931862600e-01   4.0906100049948158e-01   3.2022721714483682e-01   6.2286631525981906e-01   5.8538548201873930e-01   1.0008153199168170e+00   9.8950313528742218e-01   9.9836677591829781e-01   1.0000791670587825e+00   8.0530316092191911e-01   7.5962020577907585e-01   4.6331276462462367e-01   4.0272709669047835e-01   5.0411456500144591e-01   7.3879171616724371e-01   7.1262311905442766e-01   6.6331101705966755e-01   7.1260706752347092e-01   7.3727188340229988e-01   6.5293636213325068e-01   8.0599575343942476e-01   8.5518743764674454e-01   9.7006043359317196e-01   9.5578080824248113e-01   1.0001153706299921e+00   9.9957452831117155e-01   9.4810234095064183e-01   8.7510218559467023e-01   5.6157559160412995e-01   5.6416543326073665e-01   9.4887020130436184e-01   9.6154146258184514e-01   9.5326435839380497e-01   9.7543887461259093e-01   8.5683347539692145e-01   8.6787657279776020e-01   8.0779988384099066e-01   7.1242256791155734e-01   9.6150995737980760e-01   9.6954391226848147e-01   4.9834414834343865e-01   4.8727068271387070e-01   9.9447830594253983e-01   1.0007875057552509e+00   1.0008182153451535e+00   1.0005736983912907e+00   7.5804040768009584e-01   5.3312769551607397e-01   5.2589783249159949e-01   9.6242924846039457e-01   9.7097567901831983e-01   7.8864640653872409e-01   7.7462698904125904e-01   6.7232082607099442e-01   7.1632542271216049e-01   6.8584189525917560e-01   7.3159620708822359e-01   9.4348808327622724e-01   9.0122924581514308e-01   8.7897803741148606e-01   9.1603356844243644e-01   3.0636593153514058e-01   4.8113738889529606e-01   9.0328585294697628e-01   9.1621698549065134e-01   7.2768483797225580e-01   6.5549141943632261e-01   4.6363782824089744e-01   5.5917481573802574e-01   5.6808658394051559e-01   5.1589154675621385e-01   4.5005285291852065e-01   4.8349594352031933e-01   4.1682694495608008e-01   9.9984406300869055e-01   9.9573944361299416e-01   1.0008198555777463e+00   9.6343632732201667e-01   9.9271277129485747e-01   7.3609218473767524e-01   7.5548791257027814e-01   8.8173798802062309e-01   9.1853024202500810e-01   8.4832637291919744e-01   7.2753337698751819e-01   2.8279987684040092e-01   2.5352034167840254e-01   9.9536103220307470e-01   9.8613355705261918e-01   6.4441735769361863e-01   6.5650121466497002e-01   8.7510611268720417e-01   8.2032010711211878e-01   8.7552583388422378e-01   9.2799558021111295e-01   8.5587347331385821e-01   8.0739380190920529e-01   6.4351479907770037e-01   9.2095180349119132e-01   8.8707710369123816e-01   9.7806509436354216e-01   9.7738664478221504e-01   9.4035418151813677e-01   9.6713589278266787e-01   9.6250479830037006e-01   8.6126209963008782e-01   8.2437527481016604e-01   8.7859329931295660e-01   4.5101482741470178e-01   5.5491278927645649e-01   4.9541915221344618e-01   4.6695209876651034e-01   6.4148882173184751e-01   6.9913572261890577e-01   3.0435809265710684e-01   3.4499630759488847e-01   3.5521279013386314e-01   4.2441244356000485e-01   9.8608246666866239e-01   9.9194377130962164e-01   7.9413818034554065e-02   8.4803320815225652e-02   1.3156363148927169e-01   9.9651687808819300e-01   9.9225118843935001e-01   5.4578715613451712e-01   4.8491035749699579e-01   4.8075204086330292e-01   6.2978961578749648e-01   6.9065463514660641e-01   6.8718032128098405e-01   7.0161803469677608e-01   7.5331916615585204e-01   9.1225096107260617e-01   9.4033010947114348e-01   8.7181874299320949e-01   8.8722457483870731e-01   9.9896534589806163e-01   9.9736170640557553e-01   9.8215961136541263e-01   9.3222441836602710e-01   8.7113389746098213e-01   9.0182837265543780e-01   9.9949936407230000e-01   9.7712826553464016e-01   9.9658996728396199e-01   9.5331118508565760e-01   9.5073599695959543e-01   9.7613498849107172e-01   8.0307360210565470e-01   9.0550773907205928e-01   8.9299151924401088e-01   5.9570882624486243e-01   5.1886061016320262e-01   2.1333106523631068e-01   2.7835898192868808e-01   6.0998589137199810e-01   6.6948222950498393e-01   7.1134808089328350e-01   7.5671457951732324e-01   7.7223952903600790e-01   9.9875531618881797e-01   9.8620634475935265e-01   9.9700088765571337e-01   9.8701462005203233e-01   6.0897116106509741e-01   9.4332283197231115e-01   9.5227308421530510e-01   9.5170645329395820e-01   9.6544755535098525e-01   8.7972182582777758e-01   8.1203843645994411e-01   7.3155161264667312e-01   7.1475965950577880e-01   8.4338501323933435e-01   8.4507546896136354e-01   9.2468644562154845e-01   9.3693322646837696e-01   1.7998614754373746e-01   2.4216081731479910e-01   2.5911685928710992e-01   9.8181286125600609e-01   9.7184264341126403e-01   9.5553393139461384e-01   9.5038834095312996e-01   9.4108840553797091e-01   9.0552282809460150e-01   9.8065377868103076e-01   9.9265897461059116e-01   9.9227857886307114e-01   9.8818501932201019e-01   3.7929784566000274e-01   4.8931739851223499e-01   8.0428414123348646e-01   8.6330212656683902e-01   8.6470351670602108e-01   8.8744854352622105e-01   7.3041155881889064e-01   7.1706064349227716e-01   1.0000226991617227e+00   9.9925581503323435e-01   8.3834113461994930e-01   8.2873117540623309e-01   9.2507071801169338e-01   9.1324365091488269e-01   8.8568589080330140e-01   9.2568435157605011e-01   9.2675242676764458e-01   8.8550977265786601e-01   8.3768764853610367e-01   9.9361793591597791e-01   9.9876810635111646e-01   9.9472015206081565e-01   9.9687864447069308e-01   7.8789587093320190e-01   6.7779642634294324e-01   4.6358092155378983e-01   3.4088645887463764e-01   8.8391027424000157e-01   8.8349682766348192e-01   7.8529310101481276e-01   8.0823042631225994e-01   9.9740879107041536e-01   9.8946859148252064e-01   9.6045994696634018e-01   9.6255446604803441e-01   9.6662280544741441e-01   9.9086306162458093e-01   9.7583648675358570e-01   9.7700789977175384e-01   7.9438300838677089e-01   7.2890821974257658e-01   7.9648634380942074e-01   7.8141785299194666e-01   9.9206229086371456e-01   9.9816493099663062e-01   9.6250422244068690e-01   9.7744608754984186e-01   9.7256741912366595e-01   9.7947874341669139e-01   6.5065107460934279e-01   6.8984115120877976e-01   8.8704871785640360e-01   8.6855828287036474e-01   8.0581323219980006e-01   8.1252097743571172e-01   8.6601902760780258e-01   8.5443969819691978e-01   9.8813235567802482e-01   9.7401886893459277e-01   7.4361391850518344e-01   7.2588137918802109e-01   9.7184071720088872e-01   9.5781980945502232e-01   1.0001723998964378e+00   9.9844113257748812e-01   9.9766925862990607e-01   8.7387938010389543e-01   8.9807855013879623e-01   5.2783083518775220e-01   5.1894419236440903e-01   7.8778609666616095e-01   8.3924214351525794e-01   8.3415921700514595e-01   8.4971927794553082e-01   2.4534429515409745e-01   3.5969372757603041e-01   2.4187367719464939e-01   2.0778883408718463e-01   8.3466559262436590e-01   8.3416522750044064e-01   9.5475585969487842e-01   9.3191454302909360e-01   8.6823939907009562e-01   8.7635870850543607e-01   9.3351834448876336e-01   9.1571028272717592e-01   4.1577578411967048e-01   4.3838707466672705e-01   1.0002475295876634e+00   9.9999338314473984e-01   5.9879269339842045e-01   5.7867666616567759e-01   6.1296599979704292e-01   6.1045432690203960e-01   5.5541981697611731e-01   6.3954519490137740e-01   6.1614056142699525e-01   6.2645926747027858e-01   8.5224269829225530e-01   8.3395139844203736e-01   8.9238571389716548e-01   8.8514997923084360e-01   9.1976960991410661e-01   9.6490529635158939e-01   9.6771388393324675e-01   9.7066379197695041e-01   3.0061398794480854e-01   2.8439000000964626e-01   2.7864518182000025e-01   3.8910299206275090e-01   3.3813636439396560e-01   3.4329562241902145e-01   9.4703397716523485e-01   9.5468078713434634e-01   9.8328478571015021e-01   9.6805648325945759e-01   8.3473670171434022e-01   7.7552490166903498e-01   5.7904818274022196e-01   4.9639029925337691e-01   7.0125808357196584e-01   7.4931985164655091e-01   6.9908401738765735e-01   6.8741158964478344e-01   4.2607292044544681e-01   3.7906913494511346e-01   9.9633976183435125e-01   9.9572429077848978e-01   8.4282794649771309e-01   8.1507215929803145e-01   8.3691839991209938e-01   8.2984632788033252e-01   9.9910850553122732e-01   1.0008247244282955e+00   9.7743182513505633e-01   9.9209977986737419e-01   8.5127993454807716e-01   8.2498002100740853e-01   8.8045190103529591e-01   8.3531906231783937e-01   9.2952359658816908e-01   7.9909099765104263e-01   8.2683792379757060e-01   7.6182412694575485e-01   8.2221220266978767e-01   8.0756892533295188e-01   9.0863673052829552e-01   8.6548761916958983e-01   8.1367217358188393e-01   8.1278704772455890e-01   7.8320250125855451e-01   8.5645135446501663e-01   2.2567629598029149e-01   2.1820216182945301e-01   1.6330334352907064e-01   1.3364274310163884e-01   8.2157657361380065e-01   8.5282593698769416e-01   8.3422606690053080e-01   9.6681185846650841e-01   9.4241371282068431e-01   7.6869426903339366e-01   6.7393930812216862e-01   7.2059804966864449e-01   6.1780890599995864e-01   5.5499188190930260e-01   5.0545454122280686e-01   6.6662943127236407e-01   6.2209133768294311e-01   7.7682880443370639e-01   7.9670757112327695e-01   9.4095443029747350e-01   9.2702383516890663e-01   7.3020256020007723e-01   6.6914203685396811e-01   2.0444065895150201e-01   2.6058708666055586e-01   9.2749439140570600e-01   7.3161503622611879e-01   7.1226967879600533e-01   9.6442816128658670e-01   9.2436677462004724e-01   9.8431490410384370e-01   9.6423054858874990e-01   7.9221132452263110e-01   8.4955641437860097e-01   8.1721755496696291e-01   8.4541838703765315e-01   8.3459303167290666e-01   8.2118545519298280e-01   9.9907839130685505e-01   9.9762856480950435e-01   7.5613403097823328e-01   7.3593029962205581e-01   8.9806643000038711e-01   9.1340379512461989e-01   7.4426318305391193e-01   7.6533629010793081e-01   5.1809711636250289e-01   5.4456268657645779e-01   9.1591818094632527e-01   8.9896907311615604e-01   8.0067946695247005e-01   8.6252569924050926e-01   8.7432275839537854e-01   9.3734304073960262e-01   3.5730910935741445e-01   3.7499581416263467e-01   9.7165576827978573e-01   9.7018205378542044e-01   9.7143893259211711e-01   9.5500501046395225e-01   4.8440908779249608e-01   5.2958031333800459e-01   9.8431664331206448e-01   9.8047286766123065e-01   3.5476473767679101e-01   2.9920394380387316e-01   6.3001164152803713e-01   6.5454944654054570e-01   6.4572555160363820e-01   6.9166487929132681e-01   9.9894240054305750e-01   1.0006950704982642e+00   1.0007923823808715e+00   9.9834495076656249e-01   9.7716294981055185e-01   9.7238118087654324e-01   8.1566331951144377e-01   8.1585258609330147e-01   8.7639767074575581e-01   9.1850311922001937e-01   9.2206151627289723e-01   9.2061945046808791e-01   9.8738762950929793e-01   6.3177237710249257e-01   5.9467648079385371e-01   4.9817705632764514e-01   5.7496161296885895e-01   1.0005568363859305e+00   9.9209516919685281e-01   9.9535170136433049e-01   6.9202188293653288e-01   7.2091695736449135e-01   6.2579313699723638e-01   6.1354994259341666e-01   8.3385733026618403e-01   8.6136531838132058e-01   1.0004554171902824e+00   1.0008193436183370e+00   6.9375495428829415e-01   6.8569001903732341e-01   1.0007228163104058e+00   9.9801367330135760e-01   9.9607598665734143e-01   9.9832452589941323e-01   8.8025305743861937e-01   8.7006330865003190e-01   9.5414853735888217e-01   9.5566127675630763e-01   8.1768659632522056e-01   8.0339343118465323e-01   3.2821505054956696e-01   3.9566149945709506e-01   3.2822861522670588e-01   3.4524774888050319e-01   4.9017407798357115e-01   4.5225524834498615e-01   6.6544185610626339e-01   4.7067910641770072e-01   9.9810982286130168e-01   9.9664810430410711e-01   9.9454125800087922e-01   9.8110188876719950e-01   1.0002309200644977e+00   9.8416750150287802e-01   9.7754247072626221e-01   9.9818188869077307e-01   9.9146929054211153e-01   7.0546801283894589e-01   6.7080732981365565e-01   9.6908915948444119e-01   9.6646939880708760e-01   1.0006987442763626e+00   1.0007069965187745e+00   8.5040145555297464e-01   8.8604575022952459e-01   5.5169457311698922e-01   5.6937085945471311e-01   9.8086868697251328e-01   9.9309590885590504e-01   9.4693123514703348e-01   9.2438521892493097e-01   7.3995149063051946e-01   7.6574138749330012e-01   1.8412728537117706e-01   2.3579898461375187e-01   7.8165663564053212e-01   7.9248046915399006e-01   9.9899402389771452e-01   5.5202367207352432e-01   5.4785803190601612e-01   6.4037332409533776e-01   5.8484679339935508e-01   6.2747715460343112e-01   6.2287896247093333e-01   6.2284605088029033e-01   6.5288045574106468e-01   8.6441008005221209e-01   9.1854913770971824e-01   9.5217305570540667e-01   9.5190620549121829e-01   9.2222835453864105e-01   9.1770337967640447e-01   8.7669482402480858e-01   8.9253229758601216e-01   9.4889852580103473e-01   9.4971497635800373e-01   8.0794691528699036e-01   8.0502413083926128e-01   4.9234238030178584e-01   4.4248364601500734e-01   6.5277240336747500e-01   6.5378194894550834e-01   6.9904810393013284e-01   6.7632152459328376e-01   7.5093884611528694e-01   7.1211828190056570e-01   9.5048085776716584e-01   9.5734574098586589e-01   4.8378348015468026e-01   4.3912855381715848e-01   6.8327846517039081e-01   6.6699619792489395e-01   9.9828114463508466e-01   9.9655997385624251e-01   9.3221164849935045e-01   9.0623437670435725e-01   9.9786348873503417e-01   1.0006645895837165e+00   1.6723181457775130e-01   2.6158145042987280e-01   4.4010954347772585e-01   9.3214379612360310e-01   9.5554715607154739e-01   9.5051484695064781e-01   9.3385998256951186e-01   8.8361154497110783e-01   9.0943255889988894e-01   9.8100750909816770e-01   9.8290134994038736e-01   9.9794874025885660e-01   7.4591264493979936e-01   7.1745623150557758e-01   4.8820222013702819e-01   4.9974837823322915e-01   8.0215458846618848e-01   8.2032929238394681e-01   8.2958989003917727e-01   7.8081873246394029e-01   7.1390390506526513e-01   6.7172911059258378e-01   4.3495971346641099e-01   4.7152345618250774e-01   9.3226173930383405e-01   9.4569125987016278e-01   4.3001001304933129e-01   4.2272110289063219e-01   7.4092415362875130e-01   7.9637384986590032e-01   6.5309541106705005e-01   6.2487667272083625e-01   9.4188482715331112e-01   9.3297564655321796e-01   4.2417226283734921e-01   3.9417792547369662e-01   8.1635565077295691e-01   8.5066887564785831e-01   7.9343817374218584e-01   7.9813301643986612e-01   9.3246689170229835e-01   9.3782476122545178e-01   7.1178807038693759e-01   7.4109035726277861e-01   6.4332871888185439e-01   6.4123471302547674e-01   9.8882476834095068e-01   9.9390780533290191e-01   1.0005589711472729e+00   1.0007721649304433e+00   6.4387678314201791e-01   5.9947986393654196e-01   6.9899134262290585e-01   6.8559951215365056e-01   8.3029846716713585e-01   8.0509784141317264e-01   9.7911130450762074e-01   9.8942760383053796e-01   9.8340052715909654e-01   9.8511418729615086e-01   1.0004820395822724e+00   1.0007628414382135e+00   9.9884162960507672e-01   9.8780513018750271e-01   2.3802212938421319e-01   2.9454016350454765e-01   8.7417979331003526e-01   8.5863555292431226e-01   8.7753250281494966e-01   8.5936262404391284e-01   9.3413877986156224e-01   9.4341295012448190e-01   9.6406508341157060e-01   9.7597068795289010e-01   6.2254728000625248e-01   5.9126918191925126e-01   9.2428310039264205e-01   8.8973071726080177e-01   5.5833799891637514e-01   5.4736057714042619e-01   3.6130333641974294e-01   2.9015578280965670e-01   9.1134112222126851e-01   9.0194916932224933e-01   6.8302396072639215e-01   7.5227553134782577e-01   6.7471313908655650e-01   7.1628467815216035e-01   7.1634496916730594e-01   7.1875445078094768e-01   7.3105553992144612e-01   7.3107669485989280e-01   9.5061433844359133e-01   9.4344479438740336e-01   6.1708182424670743e-01   6.5326970623827318e-01   9.7084006338684037e-01   9.7166906638595918e-01   7.4446826416473555e-01   7.6644698771058140e-01   4.6756964522202971e-01   5.1970575885870496e-01   8.0817048401409952e-01   7.9776033387204970e-01   9.3128141081914895e-01   9.3790540945030565e-01   5.1596082202479188e-01   4.5304187521737405e-01   9.9124095792035272e-01   9.8974287073586875e-01   8.0125690757800672e-01   7.7618316635505713e-01   9.9026416531099593e-01   9.9158143455279668e-01   9.5581999323098743e-01   9.5212404945662921e-01   9.8606366420180247e-01   9.8783253394213777e-01   4.5678684830324873e-01   4.3404979209856065e-01   8.2930916812174360e-01   8.2018970302390581e-01   3.5513270128105923e-01   7.1677117392436207e-01   7.494143