<?xml version="1.0"?>
<VTKFile type="UnstructuredGrid"  version="0.1"  >
<UnstructuredGrid>
<Piece  NumberOfPoints="1385" NumberOfCells="2640">
<Points>
<DataArray  type="Float64"  NumberOfComponents="3"  format="ascii">0 0 0  1 0 0  1 1 0  0 1 0  0.5 0 0  1 0.5 0  0.5 1 0  0 0.5 0  0.5 0.5 0  0 0.25 0  0.25 0 0  0.25 1 0  0 0.75 0  1 0.25 0  0.75 0 0  1 0.75 0  0.75 1 0  0.7083333333333333 0.2916666666666667 0  0.2916666666666666 0.7083333333333334 0  0.375 0.25 0  0.75 0.625 0  0.2569444444444444 0.4652777777777778 0  0.5366379310344828 0.7535919540229885 0  0.1875 0.1875 0  0.8125 0.8125 0  0.869047619047619 0.375 0  0.1450441919191919 0.6052714646464646 0  0.375 0.8690476190476191 0  0.5526960784313725 0.1825980392156862 0  0.8385416666666666 0.1614583333333334 0  0.1614583333333333 0.8385416666666667 0  0.6736111111111112 0.4652777777777778 0  0.1367521367521368 0.3477564102564102 0  0.6570970491253563 0.8648656830417855 0  0.5102479397556124 0.3386260301221938 0  0.3654513888888889 0.5737847222222222 0  0.6929750044954185 0.1362784921584263 0  0.388576102743835 0.411911725237599 0  0.6091269841269842 0.5942460317460317 0  0.875 0.6875 0  0.427278890279516 0.119889445139758 0  0.8544456845238095 0.5213913690476191 0  0.125 0 0  0 0.125 0  1 0.875 0  0.875 1 0  0.1280008648150532 0.4769292340226777 0  0.2695382451711197 0.3321750950221553 0  0.7031567235715964 0.7447810921428012 0  0.625 0 0  0.375 0 0  0.125 1 0  0.875 0 0  0 0.375 0  0 0.625 0  1 0.375 0  0.375 1 0  1 0.125 0  0 0.875 0  0.625 1 0  1 0.625 0  0.2979288363930608 0.1201429454643536 0  0.410919540229885 0.7484605911330049 0  0.5325041980395562 0.878905151526474 0  0.4831670727569156 0.6331060043826487 0  0.1735997378973042 0.7204747378973043 0  0.2534919507575758 0.5772372159090909 0  0.2633928571428572 0.8876488095238095 0  0.8199404761904761 0.2730654761904762 0  0.75830270586982 0.3919383189517417 0  0.5750282248382511 0.4237522353023667 0  0.6008360210023379 0.2794828358598495 0  0.08163442644334186 0.6821295860397322 0  0.08333333333333333 0.1875 0  0.2028380815996574 0.08844602719988583 0  0.2766521142611967 0.2325436572164097 0  0.90625 0.78125 0  0.890625 0.890625 0  0.7545696325008384 0.8973565441669461 0  0.5625 0.08086590340834317 0  0.09077380952380953 0.09077380952380952 0  0.4610923478694773 0.209034015149656 0  0.7542527598351648 0.5248380520595106 0  0.6459235536037465 0.3619913988405765 0  0.7560381768882634 0.20506142233852 0  0.07073252688172042 0.8125 0  0.0924753097241701 0.9078102849914793 0  0.9292674731182795 0.1875 0  0.9075246902758297 0.09218971500852073 0  0.8125 0.07073252688172045 0  0.2400955776842301 0.7869705776842302 0  0.9121050213379069 0.2781978201831695 0  0.7916878157143976 0.7239689078571988 0  0.9345238095238094 0.4375 0  0.4375 0.9345238095238095 0  0.3725616989755203 0.6651895248862173 0  0.06536271996350887 0.5625 0  0.9348362560379583 0.5625 0  0.456646798987055 0.8277247094351965 0  0.1875 0.9355758238725954 0  0.6169761231634859 0.6939779188977889 0  0.6226854751147515 0.7827911461419014 0  0.3305695598137626 0.7901697871282585 0  0.5865305325818898 0.5101085479043448 0  0.6622701297028378 0.2177663989757395 0  0.1354166666666667 0.2591702279202279 0  0 0.3125 0  0.2094429575680048 0.3936361846162499 0  0.836666296419157 0.607917407161686 0  0.6875 1 0  0.214261555450504 0.6492551722020035 0  0 0.4375 0  0.07731537126068377 0.40625 0  0.3427725432967068 0.4879566233699599 0  0.3550792513951871 0.3331953632609953 0  0.4462473953896857 0.2887834789342508 0  0.4747801464819794 0.417386052030127 0  0.8229836475148948 0.4443292349237342 0  0.7322605135514757 0.8199240278289671 0  0.6756431877205955 0.5468989748126787 0  0.1968419507215863 0.5194573482612496 0  0.3285590277777778 0.9345238095238095 0  0.8125 1 0  0.4198917601920009 0.5134893045331258 0  0.5232405503206691 0.2595791787880157 0  1 0.9375 0  0.1987510870015086 0.3025185951894431 0  0.5625 1 0  0.6005390654136388 0.9228110509230952 0  0.6411254848194414 0.07704872765442942 0  0.3357233162523242 0.1855113224530532 0  0.6730653396610877 0.6393887462324165 0  0.310966987234063 0.6240019765311626 0  0.7368737836204349 0.07457755202327881 0  0.6192316414418171 0.1485238406378594 0  0.5432429670607106 0.678552703844006 0  0.4754371679695679 0.7103946803120881 0  0.07501324890749672 0.3043839897335739 0  0.5358146975860403 0.5688321463205916 0  0.3115271739500156 0.3982137365971444 0  0.3625191397122174 0.0767854603650549 0  0.5024029442563831 0.1264128223758444 0  0.4375 0 0  0.4699946908887376 0.06379961173775725 0  0.9375 0.71875 0  0.9272105898044465 0.635671179608893 0  0.9375 1 0  0.6690971819568612 0.9331530898202766 0  0.1073454944778885 0.7499206387638554 0  0.8699082999280406 0.2232403652524313 0  0.5773118091863964 0.3548027349159383 0  0.1354166666666667 0.1428571428571428 0  0.3125 0 0  0.8241684193077341 0.9257452995055244 0  0.4352314948354036 0.3586940847489378 0  0.4351301473778832 0.5819726043539077 0  0.8073232928518163 0.3419398170341962 0  0.7775949246947366 0.1298519409204575 0  0.6875 0 0  0.7413513991851041 0.457933324954483 0  0.939453125 0.841796875 0  0.5630355154606987 0.8171875156478349 0  0.9345238095238095 0.3461466592368577 0  0.9375 0 0  1 0.0625 0  0.0625 1 0  0 0.9375 0  0.06552178593177167 0.4969053669623468 0  0.1424866619031703 0.4130277709291224 0  0.1275287182444726 0.5422946908002588 0  0.2637686595586339 0.06413888464529549 0  0.2524263535491086 0.1697437503243817 0  0.7367218397988525 0.6888573970660841 0  0.0625 0 0  0 0.0625 0  0.8463594539285995 0.7578283617857982 0  0.3128751192101563 0.2851997374369947 0  0.4015281788351144 0.1806421385113692 0  0.1910251795116588 0.4553332197174453 0  0.287797471442006 0.5222621440543902 0  0.3962628745986055 0.8097380085535307 0  0.3505895299554843 0.7304878890838692 0  0.5019151500495276 0.9356042615328103 0  0.9374389419410134 0.4999931039076005 0  0.3125 1 0  0.1875 1 0  1 0.5625 0  0.4375 1 0  1 0.3125 0  1 0.4375 0  0.8125 0 0  1 0.1875 0  0.5625 0 0  0.1875 0 0  0 0.1875 0  0 0.5625 0  0 0.6875 0  0 0.8125 0  1 0.6875 0  1 0.8125 0  0.8021696218581627 0.6612893947866073 0  0.06154922295426143 0.6239401126946708 0  0.9359375 0.9359375 0  0.4666158024849896 0.7691515918155014 0  0.2318201265217025 0.7064974250277525 0  0.1565954253579966 0.6635489312486841 0  0.1598132503680848 0.7787147500325552 0  0.3146529991605639 0.8510876378205265 0  0.1461873209418733 0.05982804528877814 0  0.06109554988524315 0.2446551776247686 0  0.8054950308560754 0.5564226538848541 0  0.470541749491976 0.8853316336952531 0  0.6948472567465137 0.4042308563372457 0  0.8802828472348889 0.4658893256343853 0  0.6788075634946739 0.7974194205806069 0  0.2155048659603867 0.2428201584940968 0  0.8131223143423806 0.2132171049028394 0  0.4330798005432235 0.6671274900735726 0  0.6015279126162613 0.2187368078743274 0  0.8061636571464289 0.8703766630361714 0  0.7008230445061776 0.3478568388444072 0  0.8638466246958771 0.3147095987735538 0  0.204801534004265 0.8789209409594009 0  0.2449006736431132 0.9424182882803838 0  0.7611268409371427 0.2643056884799992 0  0.7552800864046191 0.7678006649959446 0  0.5983639638906616 0.864113435029236 0  0.1956559506814437 0.577281203577426 0  0.3527670268164207 0.1320469097565204 0  0.7530364577483248 0.3262386077083089 0  0.4535919187979363 0.4690107087451527 0  0.8824869791666666 0.8336588541666666 0  0.8814453125 0.9451171875 0  0.5582987942628019 0.622421666543858 0  0.6817532446064828 0.6939001801354731 0  0.3830295138888889 0.9450968952922078 0  0.4140603937012541 0.05211333372716105 0  0.5535864501303013 0.3060591985391672 0  0.6560130086346878 0.2729726562211558 0  0.890203140221684 0.5948314305427268 0  0.7043857725999024 0.593980890020804 0  0.5105843922695152 0.8016828014338627 0  0.05365910753708378 0.7315110031682004 0  0.616904573672261 0.4621186633436136 0  0.5338511646455415 0.387875898899613 0  0.5231769258947843 0.4477682463140762 0  0.650302973237622 0.7370722302085519 0  0.3927483139621257 0.4662414504529014 0  0.8034595960585199 0.4972538342758211 0  0.7738337841682438 0.9496376207663251 0  0.7193737507158268 0.954685447650112 0  0.482525916480686 0.5528257169991676 0  0.2533501157346781 0.2809495420003238 0  0.3118487924482243 0.5702930126570319 0  0.6257598847669529 0.4104163315430518 0  0.1354166666666667 0.1955605158730158 0  0.04166666666666666 0.15625 0  0.3956448985530264 0.6174149462065157 0  0.8102897701818546 0.3938784238208349 0  0.2641154190013625 0.8344469561943118 0  0.642852220770013 0.5068794586563659 0  0.05271458179508221 0.355846947336007 0  0.7021551360070266 0.8921457280225779 0  0.5692125776683765 0.1328512638850284 0  0.5206162811937602 0.04865158770992991 0  0.6001838442201555 0.04540556991297563 0  0.2597716608242787 0.4118346398477178 0  0.4040584599473195 0.3179589136784675 0  0.1480337679295207 0.8941560631483065 0  0.1344356707112281 0.9466251177415842 0  0.7114696411829317 0.4983917389078826 0  0.7585704698442475 0.5751926345944629 0  0.2189131956390871 0.04022068508159698 0  0.2476935455192043 0.1123642267635843 0  0.185995005654517 0.1365524537205238 0  0.6223414373308711 0.643380839165121 0  0.5732602596637543 0.7190051747306219 0  0.268358222364537 0.6586246524467934 0  0.3265879848129173 0.2369791782191225 0  0.1267095595787346 0.7034787238999181 0  0.1115202922226038 0.6421997933884982 0  0.3128688392940203 0.07260997451790079 0  0.550724900485678 0.9253360991633187 0  0.7142608810459105 0.2384904702214873 0  0.7045869185243887 0.1871826897887429 0  0.890625 0.734375 0  0.953125 0.765625 0  0.2111812642821677 0.8286209446459138 0  0.9590293078204457 0.09375 0  0.953431269039847 0.1435719386408004 0  0.04097069217955424 0.90625 0  0.04656873096015299 0.8564280613591996 0  0.1078743037981226 0.8541621766048062 0  0.8921256962018773 0.1458378233951939 0  0.8521576979194619 0.1084496634207678 0  0.8655663982740958 0.05464346096571447 0  0.04005659640905543 0.09375 0  0.1001448316533417 0.04246776244228261 
[...]
<CellData  Scalars="f_8394-4"> 
<DataArray  type="Float64"  Name="f_8394-4"  format="ascii">7.6269904186981630e-01   4.0339896141878462e-01   4.8269046545879690e-01   2.4985290901285032e-01   6.3512946812109239e-01   3.8229883465977660e-01   7.7317272992222985e-01   9.0454977392841540e-01   8.0477339513410495e-01   6.5903817502421203e-01   4.9589512849483758e-01   9.9988831302459469e-01   1.0000560230319915e+00   9.9387564532429373e-01   9.9615752439855398e-01   9.5920717149334611e-01   9.8219312298952022e-01   7.7232515342736296e-01   8.5686394045071468e-01   7.2896074232986230e-01   6.8566777520287692e-01   9.4712300875319200e-01   9.5599275417233831e-01   8.6542894935555725e-01   7.5341521348266627e-01   9.2934798987997369e-01   1.0965341498485895e-01   7.8112613302879186e-01   9.0661953768059100e-01   6.7159746907641771e-01   9.1298895180828887e-01   9.2605880988742340e-01   8.0779220927304507e-01   9.9921249692774594e-01   5.4607892649769474e-01   6.1169119616644241e-01   8.2210793809589722e-01   8.9161105989926837e-01   6.9162719010614460e-01   7.4614555913280967e-01   7.3252856650802245e-01   8.2717647692305052e-01   9.8765046574086068e-01   9.9483462523639365e-01   3.9213056724741646e-01   9.9879835478520163e-01   9.8181663347558945e-01   2.7404793277002937e-01   9.8079305486219281e-01   9.9709824349630327e-01   9.9227381663265946e-01   9.7355069967511121e-01   7.1990516691394857e-01   5.8789372675398699e-01   6.3890538582927592e-01   9.9781496271650016e-01   9.6149417348218258e-01   6.9431135851784975e-01   5.0747485615681687e-01   8.3782326822951803e-01   8.7533230954694952e-01   7.7815594932727850e-01   3.7465504684459627e-01   6.7106385021089554e-01   5.8453995780120416e-01   9.1786316509782329e-01   8.5580608275410286e-01   8.2724669430060105e-01   8.9413739811460158e-01   9.9744213970403262e-01   9.9587484441387697e-01   9.9880239189386688e-01   4.6761698776602700e-01   8.6482485187888902e-01   9.6463962025203343e-01   9.5300298334544897e-01   9.8031650602587672e-01   9.2989501857023360e-01   9.3666735331708340e-01   7.0624972156308574e-01   6.6093751310495907e-01   6.6242681304851891e-01   7.0974257260506102e-01   9.2946509200819571e-01   9.1883904337540678e-01   7.9051725684816021e-01   8.7635186079850114e-01   9.4091633260322594e-01   9.1066211062728519e-01   8.1553301687245683e-01   7.0940908978387263e-01   7.9367753365145377e-01   2.8541580951236262e-01   3.0288263788033781e-01   4.2944039201214274e-01   4.5356266148472840e-01   4.9489031128787192e-01   9.9119240052896873e-01   9.9680403056887712e-01   5.7025627306286808e-01   5.3258368233871511e-01   6.8980810245571300e-01   6.1622063160106955e-01   9.5454366353618003e-01   9.3547755209571459e-01   9.2092192225086100e-01   8.9666402050934813e-01   8.0281830930197717e-01   7.2624499843549040e-01   8.1072603447761704e-01   8.3405700498322621e-01   8.7084762347416167e-01   8.9827009417205528e-01   7.6947766057473221e-01   7.4713072831904814e-01   8.1950809161669924e-01   8.1283672953134611e-01   9.3291785618527567e-01   9.9910930472960835e-01   9.9851664923483030e-01   9.7727286203585328e-01   9.8967301066989610e-01   7.3271876455637552e-01   8.3907879195706225e-01   5.8106494779697293e-01   5.9725198106970034e-01   9.8406470261075440e-01   9.9617084784061161e-01   9.7364630951378306e-01   9.0407000092263945e-01   9.2069473413764757e-01   9.2708427304796426e-01   9.9186550617414337e-01   9.8468755309857370e-01   9.4273670995938141e-01   9.6989795834665149e-01   9.5534150853501354e-01   9.0774058111176426e-01   7.6413909575792871e-01   8.3526260860248891e-01   4.2099531332792062e-01   3.6495850036380229e-01   4.0902107428909396e-01   3.2019917855894292e-01   6.2280471970978768e-01   5.8532684964114357e-01   1.0007162527161040e+00   9.8940455656038484e-01   9.9826718266119729e-01   9.9998087781703748e-01   8.0522361484653493e-01   7.5954499009950183e-01   4.6326874971542703e-01   4.0268848886748487e-01   5.0406544256662600e-01   7.3871920225782484e-01   7.1255282754283122e-01   6.6324518027307922e-01   7.1253743516355927e-01   7.3719924409911397e-01   6.5287166869675151e-01   8.0591602608147328e-01   8.5510259723221216e-01   9.6996402143471638e-01   9.5568646748982278e-01   1.0000157416730611e+00   9.9947511419999824e-01   9.4800809293603816e-01   8.7501539452907284e-01   5.6152039528921105e-01   5.6410970007072225e-01   9.4877664431468445e-01   9.6145041743289916e-01   9.5317233755487163e-01   9.7534396472411156e-01   8.5674852878693963e-01   8.6779050860903162e-01   8.0771981253982006e-01   7.1235127447725333e-01   9.6141722414849728e-01   9.6944873137624321e-01   4.9829546837537070e-01   4.8722223023263095e-01   9.9438162403970576e-01   1.0006915202140549e+00   1.0007196105266787e+00   1.0004763492698718e+00   7.5796546515824392e-01   5.3307440909655290e-01   5.2584562215657238e-01   9.6233350356459757e-01   9.7087938043182609e-01   7.8856812170459389e-01   7.7455007801003162e-01   6.7225798254885438e-01   7.1625443339062012e-01   6.8577503334841039e-01   7.3152258804432591e-01   9.4339415112448199e-01   9.0113940538221715e-01   8.7889103650084544e-01   9.1594372163415994e-01   3.0633673005839118e-01   4.8109012558632719e-01   9.0319644241567043e-01   9.1612601352104284e-01   7.2761276896860227e-01   6.5542613382050630e-01   4.6359532893876843e-01   5.5912031413786811e-01   5.6803088144839498e-01   5.1584149216314068e-01   4.5000778305220418e-01   4.8345146358817176e-01   4.1678725343092987e-01   9.9974585400932825e-01   9.9564161039314691e-01   1.0007206965990381e+00   9.6334302957302920e-01   9.9261902669985635e-01   7.3601948255254646e-01   7.5541345433215668e-01   8.8165061049185378e-01   9.1843841067307586e-01   8.4824240782957705e-01   7.2746109463409603e-01   2.8277228426749196e-01   2.5349816250106211e-01   9.9526188068086729e-01   9.8603578087222477e-01   6.4435343195086769e-01   6.5643662379549705e-01   8.7501946533205299e-01   8.2023894220189419e-01   8.7543956429127578e-01   9.2790289451280594e-01   8.5578961089617023e-01   8.0731356582561986e-01   6.4345377971910211e-01   9.2086033754261798e-01   8.8698858233568734e-01   9.7796874537209977e-01   9.7728925141798528e-01   9.4026235455458596e-01   9.6703991345444151e-01   9.6240985083788610e-01   8.6117803584983155e-01   8.2429909127739476e-01   8.7850719264796961e-01   4.5097309401415203e-01   5.5485779978142347e-01   4.9537242276964666e-01   4.6690526633492674e-01   6.4142591339801602e-01   6.9906702070504234e-01   3.0433167294797719e-01   3.4496577463135991e-01   3.5517818663710210e-01   4.2437151798989831e-01   9.8598503398866377e-01   9.9184544027057342e-01   7.9414264804509874e-02   8.4798922247546302e-02   1.3155746629860929e-01   9.9641823920042716e-01   9.9215251965550366e-01   5.4573390233022911e-01   4.8486226242456193e-01   4.8070512925891007e-01   6.2972779133020018e-01   6.9058672458752102e-01   6.8711255686180372e-01   7.0154856198304916e-01   7.5324606268974792e-01   9.1216060587092207e-01   9.4023685376777000e-01   8.7173158814197604e-01   8.8713641327674819e-01   9.9886972427628307e-01   9.9726497796325009e-01   9.8206418999506306e-01   9.3213252287067672e-01   8.7104809850229692e-01   9.0174094025621720e-01   9.9940510522832227e-01   9.7703082113721218e-01   9.9649422837027013e-01   9.5322042904775728e-01   9.5064598319781479e-01   9.7604012929870176e-01   8.0299824842145395e-01   9.0541783139768839e-01   8.9290360161104865e-01   5.9564906509978188e-01   5.1881079380059059e-01   2.1331406524806751e-01   2.7833436807246476e-01   6.0992989512069540e-01   6.6941589004214241e-01   7.1128059238150931e-01   7.5664062963067502e-01   7.7216591006389412e-01   9.9865866984917129e-01   9.8611301625788339e-01   9.9690223125597066e-01   9.8691718306078025e-01   6.0891609729477170e-01   9.4323300356274831e-01   9.5218570919708101e-01   9.5161334205222037e-01   9.6535146237519220e-01   8.7963421650720341e-01   8.1195761315363613e-01   7.3147888744412626e-01   7.1468876547473392e-01   8.4330147112017140e-01   8.4499269910437058e-01   9.2459537368215250e-01   9.3683987156056081e-01   1.7997096639208257e-01   2.4213904424167570e-01   2.5909515794144944e-01   9.8171489622253805e-01   9.7174635824745703e-01   9.5543883310849953e-01   9.5029498012413460e-01   9.4099559713214220e-01   9.0543294501566263e-01   9.8055640486793627e-01   9.9256052822268581e-01   9.9217971318942200e-01   9.8808636401382643e-01   3.7926147255191994e-01   4.8926914638103453e-01   8.0420488972297588e-01   8.6321606120984129e-01   8.6461849081168840e-01   8.8736062307047747e-01   7.3033941928112933e-01   7.1698935402783215e-01   9.9992311127155997e-01   9.9915601388382891e-01   8.3825800303861930e-01   8.2864851283660046e-01   9.2497913055034064e-01   9.1315286426917586e-01   8.8559841289867647e-01   9.2559328645052008e-01   9.2666343700740306e-01   8.8542234452063728e-01   8.3760469399718007e-01   9.9352020647350126e-01   9.9866924729489270e-01   9.9462249988615470e-01   9.9678122372991629e-01   7.8781675455915490e-01   6.7772991296778495e-01   4.6353472805701107e-01   3.4085673298371399e-01   8.8382281284246045e-01   8.8341007658067638e-01   7.8521459169803420e-01   8.0815046640513588e-01   9.9731000652093116e-01   9.8937193363220577e-01   9.6037136493238684e-01   9.6245904385399794e-01   9.6652663001614936e-01   9.9076430691808026e-01   9.7574014985296598e-01   9.7691574151990046e-01   7.9430453688272040e-01   7.2883688268780022e-01   7.9640724967180565e-01   7.8134010098634299e-01   9.9196372458110549e-01   9.9807000115966915e-01   9.6240830725353343e-01   9.7734823549968974e-01   9.7247044595054588e-01   9.7938100131584283e-01   6.5058800532196603e-01   6.8977323540129776e-01   8.8696118007916414e-01   8.6847241130918318e-01   8.0573352093789630e-01   8.1244067088900995e-01   8.6593330516692135e-01   8.5435493103938220e-01   9.8803415134103179e-01   9.7392213781293469e-01   7.4354065451120654e-01   7.2580931581825259e-01   9.7174508911451674e-01   9.5772462469370023e-01   1.0000736877645020e+00   9.9834189064511702e-01   9.9757193125534360e-01   8.7379300564653817e-01   8.9798987881551218e-01   5.2777904029716038e-01   5.1889311029856600e-01   7.8770748442868344e-01   8.3915961421920371e-01   8.3407626990168637e-01   8.4963501658849505e-01   2.4532090213007685e-01   3.5965871279701400e-01   2.4185229105126363e-01   2.0777290711656379e-01   8.3458410946019690e-01   8.3408300032280969e-01   9.5466221825520381e-01   9.3182246322948858e-01   8.6815350520007994e-01   8.7627232545822020e-01   9.3342532447797688e-01   9.1561951257060359e-01   4.1573981069865179e-01   4.3834710728955051e-01   1.0001487734168248e+00   9.9989382611348365e-01   5.9873360480449178e-01   5.7862088021154889e-01   6.1290549419706364e-01   6.1039785715621642e-01   5.5536383189216121e-01   6.3948133909283489e-01   6.1607888618342388e-01   6.2639756039748118e-01   8.5215797937629745e-01   8.3386982733999659e-01   8.9229874923121433e-01   8.8506279545945399e-01   9.1967840209814822e-01   9.6481007692690302e-01   9.6761748411036475e-01   9.7056646987792727e-01   3.0058619544270493e-01   2.8436247900781275e-01   2.7861975990344734e-01   3.8906486724200146e-01   3.3810382168909647e-01   3.4326185460812325e-01   9.4694077286633860e-01   9.5458582329650776e-01   9.8318647744263710e-01   9.6796002546032534e-01   8.3465420207489405e-01   7.7544735825821576e-01   5.7899188608950081e-01   4.9634112919014667e-01   7.0118831696036099e-01   7.4924506363466548e-01   6.9901431218413979e-01   6.8734375683254989e-01   4.2603102050863068e-01   3.7903192002900549e-01   9.9624055698546565e-01   9.9562496356623476e-01   8.4274391062274867e-01   8.1499088693607313e-01   8.3683537331678248e-01   8.2976453183461252e-01   9.9901074935876411e-01   1.0007251039884713e+00   9.7734084606978644e-01   9.9200279862183305e-01   8.5119604665337112e-01   8.2489828826473455e-01   8.8036593430550092e-01   8.3523697548481324e-01   9.2943338346356896e-01   7.9901246396438530e-01   8.2675712341865193e-01   7.6175084811738036e-01   8.2213026031548675e-01   8.0748861764389579e-01   9.0854916766189220e-01   8.6540177721832867e-01   8.1359097235867117e-01   8.1270729268803077e-01   7.8312765759507053e-01   8.5636701212020339e-01   2.2565356637761438e-01   2.1818360518367130e-01   1.6329176346750851e-01   1.3363688483383981e-01   8.2149861445205796e-01   8.5274482729043388e-01   8.3414777374963911e-01   9.6671619162544642e-01   9.4231990933487675e-01   7.6861813422793657e-01   6.7387213312461092e-01   7.2052672899404202e-01   6.1774772216571261e-01   5.5493655307211609e-01   5.0540480470465510e-01   6.6656314778887327e-01   6.2203072117282043e-01   7.7675311678029069e-01   7.9662835376465968e-01   9.4086071650758585e-01   9.2693148641306622e-01   7.3013017355813037e-01   6.6907538824409507e-01   2.0442152929556373e-01   2.6056205188662385e-01   9.2740620658038753e-01   7.3154501535548055e-01   7.1220192848770336e-01   9.6433676268753654e-01   9.2427424390832613e-01   9.8421961372150901e-01   9.6413717715185598e-01   7.9213303251384193e-01   8.4947147972825676e-01   8.1713662209913207e-01   8.4533428303421765e-01   8.3451066501910420e-01   8.2110369577760611e-01   9.9897955192152132e-01   9.9752965095245882e-01   7.5605904559900416e-01   7.3585627473950077e-01   8.9797771697231388e-01   9.1331325029745936e-01   7.4418980397324141e-01   7.6526030981871940e-01   5.1804658513895163e-01   5.4450754566553283e-01   9.1582809619682282e-01   8.9888026834317203e-01   8.0059980378200946e-01   8.6243997840452513e-01   8.7423614903306301e-01   9.3725275136576780e-01   3.5727533029711822e-01   3.7496175556253575e-01   9.7156246215225761e-01   9.7008689195029241e-01   9.7134328395859282e-01   9.5490952753890013e-01   4.8436057052836928e-01   5.2952796418095416e-01   9.8422209412083261e-01   9.8038006242913167e-01   3.5473098123400287e-01   2.9917832412283901e-01   6.2995036914785174e-01   6.5448492167373729e-01   6.4566139350663032e-01   6.9159573138631947e-01   9.9884303609861513e-01   1.0005959505154913e+00   1.0006933830023788e+00   9.9824697619071334e-01   9.7706590562114082e-01   9.7228471157937846e-01   8.1558293705613527e-01   8.1577215638293732e-01   8.7631026031997983e-01   9.1841157740030099e-01   9.2197066512478509e-01   9.2052829940234315e-01   9.8729260015158549e-01   6.3171112605629487e-01   5.9462191486048543e-01   4.9812900593383996e-01   5.7490465915000299e-01   1.0004601002285280e+00   9.9199627919613065e-01   9.9525264273028635e-01   6.9195312228234795e-01   7.2084566171356279e-01   6.2573541222063112e-01   6.1349347525988884e-01   8.3377462986832418e-01   8.6127995968275406e-01   1.0003568154799694e+00   1.0007196038331285e+00   6.9368826899876357e-01   6.8562473505316501e-01   1.0006241396625868e+00   9.9791865573300098e-01   9.9597702128251997e-01   9.9822577166845183e-01   8.8016518075469308e-01   8.6997654772162225e-01   9.5405772913877718e-01   9.5556978860995045e-01   8.1760480440640748e-01   8.0331348558938687e-01   3.2818197215589634e-01   3.9562308584867983e-01   3.2819597756843261e-01   3.4521323124448239e-01   4.9012664884857143e-01   4.5221103094616921e-01   6.6538018222344253e-01   4.7063400010986756e-01   9.9801353217074995e-01   9.9655413010200078e-01   9.9444621077503170e-01   9.8100431712231462e-01   1.0001348775199914e+00   9.8406937953580631e-01   9.7744542758982966e-01   9.9808284225076493e-01   9.9137137217229399e-01   7.0539870757083445e-01   6.7074093638469567e-01   9.6899417059119719e-01   9.6637572623068269e-01   1.0005993294930893e+00   1.0006071598604154e+00   8.5031707185988670e-01   8.8595803769893056e-01   5.5164923740664629e-01   5.6932077329698949e-01   9.8077262025135226e-01   9.9299687587770324e-01   9.4683723652369456e-01   9.2429342703324513e-01   7.3987756047444064e-01   7.6566543132591924e-01   1.8411272236175005e-01   2.3577707481555057e-01   7.8157900740300934e-01   7.9240258095168148e-01   9.9889685974945075e-01   5.5196939727797201e-01   5.4780327439341681e-01   6.4031014638413331e-01   5.8478913817059841e-01   6.2741467193393929e-01   6.2281645989316281e-01   6.2278521981271417e-01   6.5281598142423891e-01   8.6432448542081419e-01   9.1845814040340901e-01   9.5207867100746557e-01   9.5181146916703019e-01   9.2213708613386136e-01   9.1761178228948814e-01   8.7660775156235193e-01   8.9244391325993078e-01   9.4880488216051029e-01   9.4962178876154357e-01   8.0786689120769728e-01   8.0494418155035863e-01   4.9229352509937008e-01   4.4244116516290977e-01   6.5270894934809764e-01   6.5371730374913584e-01   6.9897939914144092e-01   6.7625407907804547e-01   7.5086425966229919e-01   7.1204824495528474e-01   9.5038614936104393e-01   9.5725061917779408e-01   4.8373540252443376e-01   4.3908502099841679e-01   6.8321044084117233e-01   6.6693028916417829e-01   9.9818141711943353e-01   9.9646088457831561e-01   9.3211884524910382e-01   9.0614453623152935e-01   9.9776724681432971e-01   1.0005654350661415e+00   1.6722177692154172e-01   2.6155775663907704e-01   4.4007058761308115e-01   9.3205072530319644e-01   9.5545346748360349e-01   9.5042134642139564e-01   9.3376744375116161e-01   8.8352425406601365e-01   9.0934216014212876e-01   9.8091007948071507e-01   9.8280336363271792e-01   9.9785346157493526e-01   7.4583923888190207e-01   7.1738490935643506e-01   4.8815453434423833e-01   4.9969934646825076e-01   8.0207672142220909e-01   8.2024947598139442e-01   8.2950774555748186e-01   7.8074074416071515e-01   7.1383338767178939e-01   6.7166181864807473e-01   4.3491745201323073e-01   4.7147726959391822e-01   9.3216978711041032e-01   9.4559715596133220e-01   4.2996725712492884e-01   4.2267874957729012e-01   7.4085109809078376e-01   7.9629610075975987e-01   6.5303008020037778e-01   6.2481630320915105e-01   9.4179331931801968e-01   9.3288686389697939e-01   4.2412985270850301e-01   3.9413926780838254e-01   8.1627521430876637e-01   8.5058451011252112e-01   7.9335975645781398e-01   7.9805420720526521e-01   9.3237430923903941e-01   9.3773119278621264e-01   7.1171866654120075e-01   7.4101739084616658e-01   6.4326636262287429e-01   6.4117223584827066e-01   9.8872733029897297e-01   9.9380928208709274e-01   1.0004601378488496e+00   1.0006747413963679e+00   6.4381404400818476e-01   5.9942081813580028e-01   6.9892286988550356e-01   6.8553195794700328e-01   8.3021655768167824e-01   8.0501759727278510e-01   9.7901435385111713e-01   9.8932957698956903e-01   9.8330325601288193e-01   9.8501645558591466e-01   1.0003824978599722e+00   1.0006641425259797e+00   9.9874321571351177e-01   9.8770671643034047e-01   2.3799961795059810e-01   2.9451742880534548e-01   8.7409383253881379e-01   8.5855137538620863e-01   8.7744560429782259e-01   8.5927691385623595e-01   9.3404650193245053e-01   9.4332013939718784e-01   9.6397018318941718e-01   9.7587869875260647e-01   6.2248645853094331e-01   5.9121089966549356e-01   9.2419208720519297e-01   8.8964240541006268e-01   5.5828542660301050e-01   5.4730963612143257e-01   3.6126940249412348e-01   2.9013404932292092e-01   9.1125002199105520e-01   9.0185978229438091e-01   6.8295702791332036e-01   7.5220109209806729e-01   6.7464705279099790e-01   7.1621460354170396e-01   7.1627445659354994e-01   7.1868362800544883e-01   7.3098331956073415e-01   7.3100428520952021e-01   9.5052985638358178e-01   9.4336080793572630e-01   6.1702147416671893e-01   6.5320555778275124e-01   9.7074308261927245e-01   9.7157226421448029e-01   7.4439413122032738e-01   7.6637069675410863e-01   4.6752483370572584e-01   5.1965419745857255e-01   8.0809499988196398e-01   7.9768546220487779e-01   9.3118890880027216e-01   9.3781204623925174e-01   5.1590956314794367e-01   4.5299956183100526e-01   9.9114182746148893e-01   9.8964401085608411e-01   8.0117742092189925e-01   7.7610634715124949e-01   9.9016649801811796e-01   9.9148374410940399e-01   9.5572577503586731e-01   9.5202969437672014e-01   9.8596986944064391e-01   9.8773903524211726e-01   4.5674169638518669e-01   4.3400630956528735e-01   8.2922582660467326e-01   8.2010854447995696e-01   3.5510232797149960e-01   7.1670040035801941e-01   7.493407