<?xml version="1.0"?>
<VTKFile type="UnstructuredGrid"  version="0.1"  >
<UnstructuredGrid>
<Piece  NumberOfPoints="1385" NumberOfCells="2640">
<Points>
<DataArray  type="Float64"  NumberOfComponents="3"  format="ascii">0 0 0  1 0 0  1 1 0  0 1 0  0.5 0 0  1 0.5 0  0.5 1 0  0 0.5 0  0.5 0.5 0  0 0.25 0  0.25 0 0  0.25 1 0  0 0.75 0  1 0.25 0  0.75 0 0  1 0.75 0  0.75 1 0  0.7083333333333333 0.2916666666666667 0  0.2916666666666666 0.7083333333333334 0  0.375 0.25 0  0.75 0.625 0  0.2569444444444444 0.4652777777777778 0  0.5366379310344828 0.7535919540229885 0  0.1875 0.1875 0  0.8125 0.8125 0  0.869047619047619 0.375 0  0.1450441919191919 0.6052714646464646 0  0.375 0.8690476190476191 0  0.5526960784313725 0.1825980392156862 0  0.8385416666666666 0.1614583333333334 0  0.1614583333333333 0.8385416666666667 0  0.6736111111111112 0.4652777777777778 0  0.1367521367521368 0.3477564102564102 0  0.6570970491253563 0.8648656830417855 0  0.5102479397556124 0.3386260301221938 0  0.3654513888888889 0.5737847222222222 0  0.6929750044954185 0.1362784921584263 0  0.388576102743835 0.411911725237599 0  0.6091269841269842 0.5942460317460317 0  0.875 0.6875 0  0.427278890279516 0.119889445139758 0  0.8544456845238095 0.5213913690476191 0  0.125 0 0  0 0.125 0  1 0.875 0  0.875 1 0  0.1280008648150532 0.4769292340226777 0  0.2695382451711197 0.3321750950221553 0  0.7031567235715964 0.7447810921428012 0  0.625 0 0  0.375 0 0  0.125 1 0  0.875 0 0  0 0.375 0  0 0.625 0  1 0.375 0  0.375 1 0  1 0.125 0  0 0.875 0  0.625 1 0  1 0.625 0  0.2979288363930608 0.1201429454643536 0  0.410919540229885 0.7484605911330049 0  0.5325041980395562 0.878905151526474 0  0.4831670727569156 0.6331060043826487 0  0.1735997378973042 0.7204747378973043 0  0.2534919507575758 0.5772372159090909 0  0.2633928571428572 0.8876488095238095 0  0.8199404761904761 0.2730654761904762 0  0.75830270586982 0.3919383189517417 0  0.5750282248382511 0.4237522353023667 0  0.6008360210023379 0.2794828358598495 0  0.08163442644334186 0.6821295860397322 0  0.08333333333333333 0.1875 0  0.2028380815996574 0.08844602719988583 0  0.2766521142611967 0.2325436572164097 0  0.90625 0.78125 0  0.890625 0.890625 0  0.7545696325008384 0.8973565441669461 0  0.5625 0.08086590340834317 0  0.09077380952380953 0.09077380952380952 0  0.4610923478694773 0.209034015149656 0  0.7542527598351648 0.5248380520595106 0  0.6459235536037465 0.3619913988405765 0  0.7560381768882634 0.20506142233852 0  0.07073252688172042 0.8125 0  0.0924753097241701 0.9078102849914793 0  0.9292674731182795 0.1875 0  0.9075246902758297 0.09218971500852073 0  0.8125 0.07073252688172045 0  0.2400955776842301 0.7869705776842302 0  0.9121050213379069 0.2781978201831695 0  0.7916878157143976 0.7239689078571988 0  0.9345238095238094 0.4375 0  0.4375 0.9345238095238095 0  0.3725616989755203 0.6651895248862173 0  0.06536271996350887 0.5625 0  0.9348362560379583 0.5625 0  0.456646798987055 0.8277247094351965 0  0.1875 0.9355758238725954 0  0.6169761231634859 0.6939779188977889 0  0.6226854751147515 0.7827911461419014 0  0.3305695598137626 0.7901697871282585 0  0.5865305325818898 0.5101085479043448 0  0.6622701297028378 0.2177663989757395 0  0.1354166666666667 0.2591702279202279 0  0 0.3125 0  0.2094429575680048 0.3936361846162499 0  0.836666296419157 0.607917407161686 0  0.6875 1 0  0.214261555450504 0.6492551722020035 0  0 0.4375 0  0.07731537126068377 0.40625 0  0.3427725432967068 0.4879566233699599 0  0.3550792513951871 0.3331953632609953 0  0.4462473953896857 0.2887834789342508 0  0.4747801464819794 0.417386052030127 0  0.8229836475148948 0.4443292349237342 0  0.7322605135514757 0.8199240278289671 0  0.6756431877205955 0.5468989748126787 0  0.1968419507215863 0.5194573482612496 0  0.3285590277777778 0.9345238095238095 0  0.8125 1 0  0.4198917601920009 0.5134893045331258 0  0.5232405503206691 0.2595791787880157 0  1 0.9375 0  0.1987510870015086 0.3025185951894431 0  0.5625 1 0  0.6005390654136388 0.9228110509230952 0  0.6411254848194414 0.07704872765442942 0  0.3357233162523242 0.1855113224530532 0  0.6730653396610877 0.6393887462324165 0  0.310966987234063 0.6240019765311626 0  0.7368737836204349 0.07457755202327881 0  0.6192316414418171 0.1485238406378594 0  0.5432429670607106 0.678552703844006 0  0.4754371679695679 0.7103946803120881 0  0.07501324890749672 0.3043839897335739 0  0.5358146975860403 0.5688321463205916 0  0.3115271739500156 0.3982137365971444 0  0.3625191397122174 0.0767854603650549 0  0.5024029442563831 0.1264128223758444 0  0.4375 0 0  0.4699946908887376 0.06379961173775725 0  0.9375 0.71875 0  0.9272105898044465 0.635671179608893 0  0.9375 1 0  0.6690971819568612 0.9331530898202766 0  0.1073454944778885 0.7499206387638554 0  0.8699082999280406 0.2232403652524313 0  0.5773118091863964 0.3548027349159383 0  0.1354166666666667 0.1428571428571428 0  0.3125 0 0  0.8241684193077341 0.9257452995055244 0  0.4352314948354036 0.3586940847489378 0  0.4351301473778832 0.5819726043539077 0  0.8073232928518163 0.3419398170341962 0  0.7775949246947366 0.1298519409204575 0  0.6875 0 0  0.7413513991851041 0.457933324954483 0  0.939453125 0.841796875 0  0.5630355154606987 0.8171875156478349 0  0.9345238095238095 0.3461466592368577 0  0.9375 0 0  1 0.0625 0  0.0625 1 0  0 0.9375 0  0.06552178593177167 0.4969053669623468 0  0.1424866619031703 0.4130277709291224 0  0.1275287182444726 0.5422946908002588 0  0.2637686595586339 0.06413888464529549 0  0.2524263535491086 0.1697437503243817 0  0.7367218397988525 0.6888573970660841 0  0.0625 0 0  0 0.0625 0  0.8463594539285995 0.7578283617857982 0  0.3128751192101563 0.2851997374369947 0  0.4015281788351144 0.1806421385113692 0  0.1910251795116588 0.4553332197174453 0  0.287797471442006 0.5222621440543902 0  0.3962628745986055 0.8097380085535307 0  0.3505895299554843 0.7304878890838692 0  0.5019151500495276 0.9356042615328103 0  0.9374389419410134 0.4999931039076005 0  0.3125 1 0  0.1875 1 0  1 0.5625 0  0.4375 1 0  1 0.3125 0  1 0.4375 0  0.8125 0 0  1 0.1875 0  0.5625 0 0  0.1875 0 0  0 0.1875 0  0 0.5625 0  0 0.6875 0  0 0.8125 0  1 0.6875 0  1 0.8125 0  0.8021696218581627 0.6612893947866073 0  0.06154922295426143 0.6239401126946708 0  0.9359375 0.9359375 0  0.4666158024849896 0.7691515918155014 0  0.2318201265217025 0.7064974250277525 0  0.1565954253579966 0.6635489312486841 0  0.1598132503680848 0.7787147500325552 0  0.3146529991605639 0.8510876378205265 0  0.1461873209418733 0.05982804528877814 0  0.06109554988524315 0.2446551776247686 0  0.8054950308560754 0.5564226538848541 0  0.470541749491976 0.8853316336952531 0  0.6948472567465137 0.4042308563372457 0  0.8802828472348889 0.4658893256343853 0  0.6788075634946739 0.7974194205806069 0  0.2155048659603867 0.2428201584940968 0  0.8131223143423806 0.2132171049028394 0  0.4330798005432235 0.6671274900735726 0  0.6015279126162613 0.2187368078743274 0  0.8061636571464289 0.8703766630361714 0  0.7008230445061776 0.3478568388444072 0  0.8638466246958771 0.3147095987735538 0  0.204801534004265 0.8789209409594009 0  0.2449006736431132 0.9424182882803838 0  0.7611268409371427 0.2643056884799992 0  0.7552800864046191 0.7678006649959446 0  0.5983639638906616 0.864113435029236 0  0.1956559506814437 0.577281203577426 0  0.3527670268164207 0.1320469097565204 0  0.7530364577483248 0.3262386077083089 0  0.4535919187979363 0.4690107087451527 0  0.8824869791666666 0.8336588541666666 0  0.8814453125 0.9451171875 0  0.5582987942628019 0.622421666543858 0  0.6817532446064828 0.6939001801354731 0  0.3830295138888889 0.9450968952922078 0  0.4140603937012541 0.05211333372716105 0  0.5535864501303013 0.3060591985391672 0  0.6560130086346878 0.2729726562211558 0  0.890203140221684 0.5948314305427268 0  0.7043857725999024 0.593980890020804 0  0.5105843922695152 0.8016828014338627 0  0.05365910753708378 0.7315110031682004 0  0.616904573672261 0.4621186633436136 0  0.5338511646455415 0.387875898899613 0  0.5231769258947843 0.4477682463140762 0  0.650302973237622 0.7370722302085519 0  0.3927483139621257 0.4662414504529014 0  0.8034595960585199 0.4972538342758211 0  0.7738337841682438 0.9496376207663251 0  0.7193737507158268 0.954685447650112 0  0.482525916480686 0.5528257169991676 0  0.2533501157346781 0.2809495420003238 0  0.3118487924482243 0.5702930126570319 0  0.6257598847669529 0.4104163315430518 0  0.1354166666666667 0.1955605158730158 0  0.04166666666666666 0.15625 0  0.3956448985530264 0.6174149462065157 0  0.8102897701818546 0.3938784238208349 0  0.2641154190013625 0.8344469561943118 0  0.642852220770013 0.5068794586563659 0  0.05271458179508221 0.355846947336007 0  0.7021551360070266 0.8921457280225779 0  0.5692125776683765 0.1328512638850284 0  0.5206162811937602 0.04865158770992991 0  0.6001838442201555 0.04540556991297563 0  0.2597716608242787 0.4118346398477178 0  0.4040584599473195 0.3179589136784675 0  0.1480337679295207 0.8941560631483065 0  0.1344356707112281 0.9466251177415842 0  0.7114696411829317 0.4983917389078826 0  0.7585704698442475 0.5751926345944629 0  0.2189131956390871 0.04022068508159698 0  0.2476935455192043 0.1123642267635843 0  0.185995005654517 0.1365524537205238 0  0.6223414373308711 0.643380839165121 0  0.5732602596637543 0.7190051747306219 0  0.268358222364537 0.6586246524467934 0  0.3265879848129173 0.2369791782191225 0  0.1267095595787346 0.7034787238999181 0  0.1115202922226038 0.6421997933884982 0  0.3128688392940203 0.07260997451790079 0  0.550724900485678 0.9253360991633187 0  0.7142608810459105 0.2384904702214873 0  0.7045869185243887 0.1871826897887429 0  0.890625 0.734375 0  0.953125 0.765625 0  0.2111812642821677 0.8286209446459138 0  0.9590293078204457 0.09375 0  0.953431269039847 0.1435719386408004 0  0.04097069217955424 0.90625 0  0.04656873096015299 0.8564280613591996 0  0.1078743037981226 0.8541621766048062 0  0.8921256962018773 0.1458378233951939 0  0.8521576979194619 0.1084496634207678 0  0.8655663982740958 0.05464346096571447 0  0.04005659640905543 0.09375 0  0.1001448316533417 0.04246776244228261 
[...]
<CellData  Scalars="f_8394-4"> 
<DataArray  type="Float64"  Name="f_8394-4"  format="ascii">7.6353298604669761e-01   4.0383936408251159e-01   4.8321914463106524e-01   2.5011614636533730e-01   6.3582510988701413e-01   3.8271486144736355e-01   7.7400914913095942e-01   9.0552603601437898e-01   8.0563150330712519e-01   6.5976159187049488e-01   4.9643241331000593e-01   1.0009795684842344e+00   1.0011483968841390e+00   9.9496165411766480e-01   9.9725134624752987e-01   9.6025482287456665e-01   9.8326679957611351e-01   7.7317082531617776e-01   8.5780226316504427e-01   7.2976042091892557e-01   6.8641814753579511e-01   9.4815562525766528e-01   9.5703666707733392e-01   8.6637887918923839e-01   7.5423167525998769e-01   9.3036152260463401e-01   1.0967519789274970e-01   7.8197887564209068e-01   9.0760132920092240e-01   6.7233497045418178e-01   9.1398605204905947e-01   9.2707101618659793e-01   8.0867343235429079e-01   1.0003082567518764e+00   5.4667474543130223e-01   6.1236041146267972e-01   8.2300358295881015e-01   8.9258700493906984e-01   6.9236918138085657e-01   7.4696040263523744e-01   7.3332861266364513e-01   8.2807999242728003e-01   9.8873333642363237e-01   9.9592664081993187e-01   3.9254870515402562e-01   9.9986398682418964e-01   9.8289215303995381e-01   2.7433012469820023e-01   9.8182475100043132e-01   9.9818006631587275e-01   9.9335647187994724e-01   9.7460486938275415e-01   7.2069088980944529e-01   5.8852978432791114e-01   6.3960458124172270e-01   9.9890286198260159e-01   9.6254802106324977e-01   6.9506414587170962e-01   5.0802746233456730e-01   8.3873721655095879e-01   8.7628597908438233e-01   7.7898128827893676e-01   3.7502880930239424e-01   6.7179861425962262e-01   5.8516532023055712e-01   9.1886682502165373e-01   8.5674409306243082e-01   8.2813505964940048e-01   8.9510682567654243e-01   9.9850943612217358e-01   9.9695974448617175e-01   9.9989475486367152e-01   4.6812443446836632e-01   8.6577178872329130e-01   9.6569587225060005e-01   9.5404860629600530e-01   9.8139117945348198e-01   9.3091279510073166e-01   9.3769474206973946e-01   7.0701820919445002e-01   6.6166268060592615e-01   6.6314805509136387e-01   7.1051946020486878e-01   9.3046799943290637e-01   9.1984488194247016e-01   7.9137984939049977e-01   8.7730938302965378e-01   9.4194451622994135e-01   9.1165430891064114e-01   8.1642365541761930e-01   7.1018411904513190e-01   7.9454689256427768e-01   2.8569934090145338e-01   3.0320902489241908e-01   4.2991271032102329e-01   4.5405226242540470e-01   4.9542683369999452e-01   9.9224679383195447e-01   9.9788735406941309e-01   5.7087359141075877e-01   5.3314980857500749e-01   6.9056111067587889e-01   6.1689037191107510e-01   9.5559004034425132e-01   9.3650272362893716e-01   9.2193286841562672e-01   8.9764111963922932e-01   8.0369551227905289e-01   7.2703773903737168e-01   8.1160366279954832e-01   8.3496962046215251e-01   8.7179383657868625e-01   8.9925057505830064e-01   7.7031687268641635e-01   7.4793780025954915e-01   8.2039843233074861e-01   8.1372532363000449e-01   9.3393605213069530e-01   1.0002036948870132e+00   9.9960549127795439e-01   9.7834423299065754e-01   9.9074534347734444e-01   7.3351534037025456e-01   8.3998981444969845e-01   5.8168128122088736e-01   5.9790199308014880e-01   9.8514222207738855e-01   9.9725302582023645e-01   9.7470625210192274e-01   9.0505692260244464e-01   9.2170209492321509e-01   9.2810096193099267e-01   9.9294777523857780e-01   9.8576626858992644e-01   9.4376327149415662e-01   9.7095661706872438e-01   9.5638939608417917e-01   9.0873554293553527e-01   7.6497333024714365e-01   8.3618001295889832e-01   4.2145643328640264e-01   3.6535326659337491e-01   4.0945765472158502e-01   3.2052279525912969e-01   6.2348504367691748e-01   5.8596668902429438e-01   1.0018050122129698e+00   9.9048973011082808e-01   9.9936160099741966e-01   1.0010604308029498e+00   8.0610316829229067e-01   7.6037404429550748e-01   4.6376138429453850e-01   4.0310903389509356e-01   5.0461214492550099e-01   7.3952255380052123e-01   7.1333024738666706e-01   6.6396964741765674e-01   7.1331135462940953e-01   7.3800331723398682e-01   6.5358627809009739e-01   8.0679607943269949e-01   8.5603736448517609e-01   9.7102519611273519e-01   9.5672826379239362e-01   1.0011106127965761e+00   1.0005684384973097e+00   9.4904684496203240e-01   8.7597261718961761e-01   5.6212977141694853e-01   5.6472464804626099e-01   9.4981170242032131e-01   9.6246933909394794e-01   9.5420149450670855e-01   9.7638898916037453e-01   8.5768495832491165e-01   8.6874127182068805e-01   8.0860251197329114e-01   7.1313359861462811e-01   9.6242941189968290e-01   9.7048865199237011e-01   4.9883569166706299e-01   4.8775383138912876e-01   9.9544834770413781e-01   1.0017576508982931e+00   1.0018027048051128e+00   1.0015496871755105e+00   7.5879277347590524e-01   5.3365818419820044e-01   5.2642036866711772e-01   9.6338747225025434e-01   9.7194070895065598e-01   7.8943082430773548e-01   7.7539699863696310e-01   6.7296555793346824e-01   7.1703419491997022e-01   6.8651772889774232e-01   7.3232609417422678e-01   9.4442614209154274e-01   9.0212646439942501e-01   8.7985136435307298e-01   9.1693995081392232e-01   3.0665892035731029e-01   4.8161349279273452e-01   9.0418464656166475e-01   9.1713000267451383e-01   7.2840757373291443e-01   6.5614441327362871e-01   4.6406950624299875e-01   5.5972337894262580e-01   5.6864727768503787e-01   5.1639113572786399e-01   4.5049626192206593e-01   4.8394671769858011e-01   4.1723272217358687e-01   1.0008243423880661e+00   9.9671521430194665e-01   1.0018126853036591e+00   9.6436096727278386e-01   9.9367275219929707e-01   7.3681889086461017e-01   7.5623304649694778e-01   8.8261426440049362e-01   9.1944342231407561e-01   8.4916955728568888e-01   7.2825649306999651e-01   2.8307497278274640e-01   2.5374483650583080e-01   9.9635275461080852e-01   9.8711184552350129e-01   6.4505845831877429e-01   6.5714997632334338e-01   8.7597607987856008e-01   8.2113515647938662e-01   8.7639522790944757e-01   9.2892068471434763e-01   8.5671970892989480e-01   8.0819565282632166e-01   6.4414198974490966e-01   9.2186678970059166e-01   8.8796076630876097e-01   9.7902251292236464e-01   9.7836193710712316e-01   9.4128234641009545e-01   9.6809442503602983e-01   9.6345932479411012e-01   8.6211382630295952e-01   8.2515753296050554e-01   8.7946399066979863e-01   4.5143935331415685e-01   5.5545212881213069e-01   4.9589451432499093e-01   4.6741502519423733e-01   6.4212385135312566e-01   6.9982774983753937e-01   3.0464429179538693e-01   3.4531064707132986e-01   3.5556203277427834e-01   4.2482877494980548e-01   9.8705945972085007e-01   9.9292775470146755e-01   7.9444707843430384e-02   8.4866155773059587e-02   1.3162915403749717e-01   9.9750409280226782e-01   9.9323857108722602e-01   5.4632441016384403e-01   4.8539229222033914e-01   4.8122571264962022e-01   6.3041361530592888e-01   6.9133997711229378e-01   6.8786299835811571e-01   7.0231554293252074e-01   7.5406239295494071e-01   9.1315706768439220e-01   9.4126599032319980e-01   8.7268630591672902e-01   8.8810713144900588e-01   9.9993608861432848e-01   9.9834551852409692e-01   9.8311803827058297e-01   9.3314034484139052e-01   8.7198894644478919e-01   9.0270741772414331e-01   1.0004668560959442e+00   9.7809655375455251e-01   9.9755903062971951e-01   9.5424230444612212e-01   9.5165652977361725e-01   9.7709794680822559e-01   8.0383895532940119e-01   9.0640435611708070e-01   8.9387824410432126e-01   5.9629783685359294e-01   5.1936486175492291e-01   2.1351176778186520e-01   2.7861001676091390e-01   6.1055978707556513e-01   6.7014718767529247e-01   7.1203040306282928e-01   7.5745548307174637e-01   7.7298502332735131e-01   9.9972683885479363e-01   9.8715760568052724e-01   9.9798989275575600e-01   9.8799494433549928e-01   6.0954375710041853e-01   9.4424325989012403e-01   9.5316483069224633e-01   9.5264695289283718e-01   9.6640806054552930e-01   8.8059876575579266e-01   8.1284855534821487e-01   7.3227804775974481e-01   7.1546902973547943e-01   8.4422119458065603e-01   8.4590957333465455e-01   9.2559950680222369e-01   9.3786705730138897e-01   1.8015306221356348e-01   2.4239085397526589e-01   2.5934469454468584e-01   9.8279259696707688e-01   9.7280798067606244e-01   9.5648524772588117e-01   9.5133029645236777e-01   9.4202146377093710e-01   9.0642169137107920e-01   9.8162943717048856e-01   9.9364033402905583e-01   9.9326719896967985e-01   9.8917018579476546e-01   3.7966898014559536e-01   4.8980189960998377e-01   8.0508210161335303e-01   8.6416117364095046e-01   8.6556069931931279e-01   8.8833185213634080e-01   7.3113587360184240e-01   7.1777245209371898e-01   1.0010187526521539e+00   1.0002533155519437e+00   8.3917505803797232e-01   8.2955707016936442e-01   9.2599121831165343e-01   9.1415262447842893e-01   8.8656471410298732e-01   9.2660053694367239e-01   9.2765177472905958e-01   8.8638820174011135e-01   8.3851971254033830e-01   9.9460188047609410e-01   9.9975917118221025e-01   9.9570672886305378e-01   9.9785447843686870e-01   7.8868186286876063e-01   6.7846791946786522e-01   4.6403953907340900e-01   3.4119548938065392e-01   8.8478757481614545e-01   8.8437284447405962e-01   7.8607529414153021e-01   8.0903270953377393e-01   9.9840024836381780e-01   9.9043705888350420e-01   9.6137268748198978e-01   9.6351136906695534e-01   9.6758469621910514e-01   9.9184950328073496e-01   9.7680528835956393e-01   9.7795096201705645e-01   7.9517241709768482e-01   7.2962915472672307e-01   7.9727935971152841e-01   7.8219577285000996e-01   9.9304893788118975e-01   9.9912987736560055e-01   9.6346422430439349e-01   9.7842241225684667e-01   9.7353799671184149e-01   9.8045601121379455e-01   6.5129284431224210e-01   6.9052173909170100e-01   8.8792783169861866e-01   8.6942092829034467e-01   8.0661340556586958e-01   8.1332775917736633e-01   8.6687908881129583e-01   8.5528960728514525e-01   9.8911588635811043e-01   9.7498804193905364e-01   7.4434969507899795e-01   7.2660236523973465e-01   9.7280437453807311e-01   9.5877350078504608e-01   1.0011600645900944e+00   9.9943138481589866e-01   9.9864405544688695e-01   8.7474764174479436e-01   8.9896997738543116e-01   5.2835222253012371e-01   5.1945717663861457e-01   7.8857010688422946e-01   8.4007335838223129e-01   8.3498877037359698e-01   8.5056407081707364e-01   2.4558107468641957e-01   3.6004566013685080e-01   2.4209153596301630e-01   2.0796087685446102e-01   8.3548991299016195e-01   8.3499172334478611e-01   9.5570082192830141e-01   9.3283940055168713e-01   8.6909879603987539e-01   8.7722684573248821e-01   9.3444932821110982e-01   9.1662143360693782e-01   4.1615475606669849e-01   4.3879678243455866e-01   1.0012408900672862e+00   1.0009902654277640e+00   5.9938463604776160e-01   5.7923507867376367e-01   6.1356774216956844e-01   6.1103358553824572e-01   5.5597324084963184e-01   6.4018141544951968e-01   6.1675429688064509e-01   6.2708072568092144e-01   8.5308931308605107e-01   8.3477088071564964e-01   8.9326768453270033e-01   8.8601909792356925e-01   9.2068403128628118e-01   9.6586266633343343e-01   9.6867872210999173e-01   9.7163364714168010e-01   3.0089207562578951e-01   2.8466096448516587e-01   2.7890139642592932e-01   3.8948325373268411e-01   3.3846739922721703e-01   3.4363248639025756e-01   9.4797273714292751e-01   9.5563155590848770e-01   9.8426525067622805e-01   9.6902117928928910e-01   8.3556610743310233e-01   7.7629735910462239e-01   5.7961975591436332e-01   4.9688297187077984e-01   7.0195428494409950e-01   7.5006742138542137e-01   6.9977922670514803e-01   6.8809164922466559e-01   4.2648870469970201e-01   3.7943671486609803e-01   9.9733076590431324e-01   9.9671422097087936e-01   8.4366843145633841e-01   8.1588436280978649e-01   8.3775099283648169e-01   8.3067028076875682e-01   1.0000950972366316e+00   1.0018220090694394e+00   9.7837465593140505e-01   9.9306688739493942e-01   8.5212182858205265e-01   8.2579981511882350e-01   8.8131387250690685e-01   8.3614076270807325e-01   9.3044018253077421e-01   7.9987114043088803e-01   8.2765299093189670e-01   7.6256124769485123e-01   8.2302982189881269e-01   8.0837125777143359e-01   9.0952031192083271e-01   8.6634526539171242e-01   8.1448176359888125e-01   8.1358492970733820e-01   7.8396974266545882e-01   8.5729321349980347e-01   2.2589203111632569e-01   2.1838906266535163e-01   1.6342330773151001e-01   1.3371551191380243e-01   8.2236532684465857e-01   8.5365840554384920e-01   8.3502158802522441e-01   9.6776595641029584e-01   9.4335222938214036e-01   7.6945763202482631e-01   6.7460213524575641e-01   7.2131379559689679e-01   6.1842290947444067e-01   5.5554453929946579e-01   5.0595556489218962e-01   6.6729128629203316e-01   6.2270566742820943e-01   7.7758809686916230e-01   7.9749964785217786e-01   9.4189323762993338e-01   9.2794821614890710e-01   7.3092622492008752e-01   6.6980827222016559e-01   2.0462344822483719e-01   2.6083997595928465e-01   9.2839381734057291e-01   7.3232940704038330e-01   7.1295831387135489e-01   9.6536059931651408e-01   9.2528575682024994e-01   9.8526981418966941e-01   9.6515922703803114e-01   7.9299815599133372e-01   8.5040498641669704e-01   8.1803018423805729e-01   8.4626179637130539e-01   8.3542077512926127e-01   8.2200260909899492e-01   1.0000722191663538e+00   9.9862197552483545e-01   7.5688619989349815e-01   7.3666464473395521e-01   8.9895865827102039e-01   9.1431334506838191e-01   7.4499914554978852e-01   7.6609567327632311e-01   5.1860870689033933e-01   5.4510675843267886e-01   9.1682576704620056e-01   8.9986293890434677e-01   8.0147629874300097e-01   8.6338261465060140e-01   8.7519098108335913e-01   9.3825465371844730e-01   3.5765789226745115e-01   3.7534232774734388e-01   9.7259782554099361e-01   9.7113491917334971e-01   9.7240182080989690e-01   9.5595684173881856e-01   4.8488788800779564e-01   5.3010352349736056e-01   9.8528301789502692e-01   9.8142426484124368e-01   3.5510002529526269e-01   2.9948096964109833e-01   6.3062608790225838e-01   6.5519125769272435e-01   6.4636694606849310e-01   6.9235492499795337e-01   9.9993661585587645e-01   1.0016901177839383e+00   1.0017862383043210e+00   9.9933298358143086e-01   9.7813549573565550e-01   9.7334821031872398e-01   8.1647234196064300e-01   8.1666116398928679e-01   8.7727047217059784e-01   9.1941717839522963e-01   9.2297743103949803e-01   9.2153311738897303e-01   9.8835894055783879e-01   6.3238420049950683e-01   5.9523070347037665e-01   4.9866651727674105e-01   5.7552288404655672e-01   1.0015415795013047e+00   9.9308519369471659e-01   9.9634325455073935e-01   6.9270986846853044e-01   7.2163313258851158e-01   6.2639033159946234e-01   6.1413450151264115e-01   8.3468654357623895e-01   8.6222145230050173e-01   1.0014480450568799e+00   1.0018168823153162e+00   6.9443497617920835e-01   6.8635054026897435e-01   1.0017073888217400e+00   9.9898344353668200e-01   9.9706816942971155e-01   9.9931753682956448e-01   8.8113143755542067e-01   8.7093079572697318e-01   9.5506992127034063e-01   9.5658593267505698e-01   8.1850320540256694e-01   8.0419373570460406e-01   3.2853805664209512e-01   3.9605005013268868e-01   3.2855074299851267e-01   3.4558808996166707e-01   4.9065562951869163e-01   4.5270146222893887e-01   6.6608568680690516e-01   4.7113762261579906e-01   9.9908010367556355e-01   9.9760943768653587e-01   9.9550347753504420e-01   9.8207252458448047e-01   1.0012030179358518e+00   9.8514928914839017e-01   9.7851522273382374e-01   9.9917548318973415e-01   9.9245412498967955e-01   7.0616669791658349e-01   6.7147313962103128e-01   9.7004983177762638e-01   9.6742035430599782e-01   1.0016950911427813e+00   1.0017046382193937e+00   8.5124711542878739e-01   8.8692595069651781e-01   5.5219294781088890e-01   5.6989157268573720e-01   9.8182872851047498e-01   9.9408550176237453e-01   9.4787232732438143e-01   9.2530513646765233e-01   7.4068823222813229e-01   7.6650288588941251e-01   1.8427522498492574e-01   2.3602167928858653e-01   7.8243404906507397e-01   7.9326663711076606e-01   9.9998104812696464e-01   5.5256999715216437e-01   5.4840141786255781e-01   6.4100813230051079e-01   5.8542501021937610e-01   6.2810175273239865e-01   6.2349856582365482e-01   6.2346075415927338e-01   6.5352821711083642e-01   8.6526983607351782e-01   9.1946269209269416e-01   9.5311851771485456e-01   9.5285337773887124e-01   9.2314446439097519e-01   9.1861834498169270e-01   8.7756778343114017e-01   8.9341922047202438e-01   9.4984020595054730e-01   9.5064990148883699e-01   8.0875040398138254e-01   8.0582482263842969e-01   4.9283014814366516e-01   4.4291705612498244e-01   6.5341529597984871e-01   6.5442959421074554e-01   6.9973920617776142e-01   6.7699126955910527e-01   7.5168772656092997e-01   7.1282399292809395e-01   9.5142782608738896e-01   9.5829204202527007e-01   4.8426311911489084e-01   4.3955712719241530e-01   6.8395835868479660e-01   6.6765854842884942e-01   9.9927541783636620e-01   9.9754932326335377e-01   9.3313994418172985e-01   9.0713492946934471e-01   9.9883343997495866e-01   1.0016577418944814e+00   1.6735557075190552e-01   2.6182028823538078e-01   4.4051834598694473e-01   9.3307307587284660e-01   9.5649320087065570e-01   9.5145675560403575e-01   9.3478806933092817e-01   8.8448941852225771e-01   9.1033737779854562e-01   9.8198035617485002e-01   9.8388124851677405e-01   9.9892505850500091e-01   7.4665200122650710e-01   7.1816881380229025e-01   4.8868261050592937e-01   5.0024163522501064e-01   8.0294577290547753e-01   8.2114046381137873e-01   8.3041489826246617e-01   7.8159630959767845e-01   7.1461251680299798e-01   6.7240028288167231e-01   4.3538762706526279e-01   4.7199027338040062e-01   9.3318631049861589e-01   9.4663436342682150e-01   4.3043657369520905e-01   4.2314138477341540e-01   7.4165922862658540e-01   7.9716095392294495e-01   6.5374626833308891e-01   6.2549239856319183e-01   9.4281488502129462e-01   9.3388566779375648e-01   4.2459308268985280e-01   3.9456340879302298e-01   8.1716539514877506e-01   8.5151436728461027e-01   7.9422618984375348e-01   7.9892517145766251e-01   9.3339543256408053e-01   9.3876137472779686e-01   7.1249138658245026e-01   7.4182498989984658e-01   6.4396240760325552e-01   6.4186658678746533e-01   9.8980333803698262e-01   9.9489438353464199e-01   1.0015478709013770e+00   1.0017478373716782e+00   6.4451337045906343e-01   6.0007260903989024e-01   6.9968291061284504e-01   6.8627949201863581e-01   8.3112122851279790e-01   8.0590035112851555e-01   9.8008485178744431e-01   9.9041183602799931e-01   9.8437871668989818e-01   9.8609197410378302e-01   1.0014794456917873e+00   1.0017569886028512e+00   9.9983324360666237e-01   9.8878896385075388e-01   2.3825281457868855e-01   2.9480665898387975e-01   8.7504554450154326e-01   8.5948474052302271e-01   8.7840607648935720e-01   8.6022071316700699e-01   9.3506360092944418e-01   9.4434147215977249e-01   9.6501215619026592e-01   9.7691938919515919e-01   6.2316389863695909e-01   5.9185263987040615e-01   9.2520016944968797e-01   8.9061667238528430e-01   5.5887105592738595e-01   5.4788086015576876e-01   3.6164177570715816e-01   2.9040998368351673e-01   9.1224910753852317e-01   9.0284582168042826e-01   6.8369132442199021e-01   7.5302254631892074e-01   6.7537471835847773e-01   7.1698614107017322e-01   7.1705592761150672e-01   7.1946760415907518e-01   7.3177760001375614e-01   7.3180113325937179e-01   9.5149498648677633e-01   9.4433750980234854e-01   6.1769060797715691e-01   6.5391697478400357e-01   9.7180749023546908e-01   9.7263674381473253e-01   7.4521046273346681e-01   7.6721044475525191e-01   4.6801784830502924e-01   5.2021771542340633e-01   8.0894302694397457e-01   7.9853307470246859e-01   9.3220819399996457e-01   9.3883712687982823e-01   5.1647089326456086e-01   4.5347080619796243e-01   9.9222940970219886e-01   9.9073015186504487e-01   8.0205374045346034e-01   7.7695426943833934e-01   9.9124169550981911e-01   9.9255868070000997e-01   9.5676241746641810e-01   9.5306882926126624e-01   9.8702021222553338e-01   9.8879545799203694e-01   4.5723899639158583e-01   4.3448102783425163e-01   8.3013812242865459e-01   8.2100504586280676e-01   3.5545793802010373e-01   7.1748139517614229e-01   7.501554