<?xml version="1.0"?>
<VTKFile type="UnstructuredGrid"  version="0.1"  >
<UnstructuredGrid>
<Piece  NumberOfPoints="1385" NumberOfCells="2640">
<Points>
<DataArray  type="Float64"  NumberOfComponents="3"  format="ascii">0 0 0  1 0 0  1 1 0  0 1 0  0.5 0 0  1 0.5 0  0.5 1 0  0 0.5 0  0.5 0.5 0  0 0.25 0  0.25 0 0  0.25 1 0  0 0.75 0  1 0.25 0  0.75 0 0  1 0.75 0  0.75 1 0  0.7083333333333333 0.2916666666666667 0  0.2916666666666666 0.7083333333333334 0  0.375 0.25 0  0.75 0.625 0  0.2569444444444444 0.4652777777777778 0  0.5366379310344828 0.7535919540229885 0  0.1875 0.1875 0  0.8125 0.8125 0  0.869047619047619 0.375 0  0.1450441919191919 0.6052714646464646 0  0.375 0.8690476190476191 0  0.5526960784313725 0.1825980392156862 0  0.8385416666666666 0.1614583333333334 0  0.1614583333333333 0.8385416666666667 0  0.6736111111111112 0.4652777777777778 0  0.1367521367521368 0.3477564102564102 0  0.6570970491253563 0.8648656830417855 0  0.5102479397556124 0.3386260301221938 0  0.3654513888888889 0.5737847222222222 0  0.6929750044954185 0.1362784921584263 0  0.388576102743835 0.411911725237599 0  0.6091269841269842 0.5942460317460317 0  0.875 0.6875 0  0.427278890279516 0.119889445139758 0  0.8544456845238095 0.5213913690476191 0  0.125 0 0  0 0.125 0  1 0.875 0  0.875 1 0  0.1280008648150532 0.4769292340226777 0  0.2695382451711197 0.3321750950221553 0  0.7031567235715964 0.7447810921428012 0  0.625 0 0  0.375 0 0  0.125 1 0  0.875 0 0  0 0.375 0  0 0.625 0  1 0.375 0  0.375 1 0  1 0.125 0  0 0.875 0  0.625 1 0  1 0.625 0  0.2979288363930608 0.1201429454643536 0  0.410919540229885 0.7484605911330049 0  0.5325041980395562 0.878905151526474 0  0.4831670727569156 0.6331060043826487 0  0.1735997378973042 0.7204747378973043 0  0.2534919507575758 0.5772372159090909 0  0.2633928571428572 0.8876488095238095 0  0.8199404761904761 0.2730654761904762 0  0.75830270586982 0.3919383189517417 0  0.5750282248382511 0.4237522353023667 0  0.6008360210023379 0.2794828358598495 0  0.08163442644334186 0.6821295860397322 0  0.08333333333333333 0.1875 0  0.2028380815996574 0.08844602719988583 0  0.2766521142611967 0.2325436572164097 0  0.90625 0.78125 0  0.890625 0.890625 0  0.7545696325008384 0.8973565441669461 0  0.5625 0.08086590340834317 0  0.09077380952380953 0.09077380952380952 0  0.4610923478694773 0.209034015149656 0  0.7542527598351648 0.5248380520595106 0  0.6459235536037465 0.3619913988405765 0  0.7560381768882634 0.20506142233852 0  0.07073252688172042 0.8125 0  0.0924753097241701 0.9078102849914793 0  0.9292674731182795 0.1875 0  0.9075246902758297 0.09218971500852073 0  0.8125 0.07073252688172045 0  0.2400955776842301 0.7869705776842302 0  0.9121050213379069 0.2781978201831695 0  0.7916878157143976 0.7239689078571988 0  0.9345238095238094 0.4375 0  0.4375 0.9345238095238095 0  0.3725616989755203 0.6651895248862173 0  0.06536271996350887 0.5625 0  0.9348362560379583 0.5625 0  0.456646798987055 0.8277247094351965 0  0.1875 0.9355758238725954 0  0.6169761231634859 0.6939779188977889 0  0.6226854751147515 0.7827911461419014 0  0.3305695598137626 0.7901697871282585 0  0.5865305325818898 0.5101085479043448 0  0.6622701297028378 0.2177663989757395 0  0.1354166666666667 0.2591702279202279 0  0 0.3125 0  0.2094429575680048 0.3936361846162499 0  0.836666296419157 0.607917407161686 0  0.6875 1 0  0.214261555450504 0.6492551722020035 0  0 0.4375 0  0.07731537126068377 0.40625 0  0.3427725432967068 0.4879566233699599 0  0.3550792513951871 0.3331953632609953 0  0.4462473953896857 0.2887834789342508 0  0.4747801464819794 0.417386052030127 0  0.8229836475148948 0.4443292349237342 0  0.7322605135514757 0.8199240278289671 0  0.6756431877205955 0.5468989748126787 0  0.1968419507215863 0.5194573482612496 0  0.3285590277777778 0.9345238095238095 0  0.8125 1 0  0.4198917601920009 0.5134893045331258 0  0.5232405503206691 0.2595791787880157 0  1 0.9375 0  0.1987510870015086 0.3025185951894431 0  0.5625 1 0  0.6005390654136388 0.9228110509230952 0  0.6411254848194414 0.07704872765442942 0  0.3357233162523242 0.1855113224530532 0  0.6730653396610877 0.6393887462324165 0  0.310966987234063 0.6240019765311626 0  0.7368737836204349 0.07457755202327881 0  0.6192316414418171 0.1485238406378594 0  0.5432429670607106 0.678552703844006 0  0.4754371679695679 0.7103946803120881 0  0.07501324890749672 0.3043839897335739 0  0.5358146975860403 0.5688321463205916 0  0.3115271739500156 0.3982137365971444 0  0.3625191397122174 0.0767854603650549 0  0.5024029442563831 0.1264128223758444 0  0.4375 0 0  0.4699946908887376 0.06379961173775725 0  0.9375 0.71875 0  0.9272105898044465 0.635671179608893 0  0.9375 1 0  0.6690971819568612 0.9331530898202766 0  0.1073454944778885 0.7499206387638554 0  0.8699082999280406 0.2232403652524313 0  0.5773118091863964 0.3548027349159383 0  0.1354166666666667 0.1428571428571428 0  0.3125 0 0  0.8241684193077341 0.9257452995055244 0  0.4352314948354036 0.3586940847489378 0  0.4351301473778832 0.5819726043539077 0  0.8073232928518163 0.3419398170341962 0  0.7775949246947366 0.1298519409204575 0  0.6875 0 0  0.7413513991851041 0.457933324954483 0  0.939453125 0.841796875 0  0.5630355154606987 0.8171875156478349 0  0.9345238095238095 0.3461466592368577 0  0.9375 0 0  1 0.0625 0  0.0625 1 0  0 0.9375 0  0.06552178593177167 0.4969053669623468 0  0.1424866619031703 0.4130277709291224 0  0.1275287182444726 0.5422946908002588 0  0.2637686595586339 0.06413888464529549 0  0.2524263535491086 0.1697437503243817 0  0.7367218397988525 0.6888573970660841 0  0.0625 0 0  0 0.0625 0  0.8463594539285995 0.7578283617857982 0  0.3128751192101563 0.2851997374369947 0  0.4015281788351144 0.1806421385113692 0  0.1910251795116588 0.4553332197174453 0  0.287797471442006 0.5222621440543902 0  0.3962628745986055 0.8097380085535307 0  0.3505895299554843 0.7304878890838692 0  0.5019151500495276 0.9356042615328103 0  0.9374389419410134 0.4999931039076005 0  0.3125 1 0  0.1875 1 0  1 0.5625 0  0.4375 1 0  1 0.3125 0  1 0.4375 0  0.8125 0 0  1 0.1875 0  0.5625 0 0  0.1875 0 0  0 0.1875 0  0 0.5625 0  0 0.6875 0  0 0.8125 0  1 0.6875 0  1 0.8125 0  0.8021696218581627 0.6612893947866073 0  0.06154922295426143 0.6239401126946708 0  0.9359375 0.9359375 0  0.4666158024849896 0.7691515918155014 0  0.2318201265217025 0.7064974250277525 0  0.1565954253579966 0.6635489312486841 0  0.1598132503680848 0.7787147500325552 0  0.3146529991605639 0.8510876378205265 0  0.1461873209418733 0.05982804528877814 0  0.06109554988524315 0.2446551776247686 0  0.8054950308560754 0.5564226538848541 0  0.470541749491976 0.8853316336952531 0  0.6948472567465137 0.4042308563372457 0  0.8802828472348889 0.4658893256343853 0  0.6788075634946739 0.7974194205806069 0  0.2155048659603867 0.2428201584940968 0  0.8131223143423806 0.2132171049028394 0  0.4330798005432235 0.6671274900735726 0  0.6015279126162613 0.2187368078743274 0  0.8061636571464289 0.8703766630361714 0  0.7008230445061776 0.3478568388444072 0  0.8638466246958771 0.3147095987735538 0  0.204801534004265 0.8789209409594009 0  0.2449006736431132 0.9424182882803838 0  0.7611268409371427 0.2643056884799992 0  0.7552800864046191 0.7678006649959446 0  0.5983639638906616 0.864113435029236 0  0.1956559506814437 0.577281203577426 0  0.3527670268164207 0.1320469097565204 0  0.7530364577483248 0.3262386077083089 0  0.4535919187979363 0.4690107087451527 0  0.8824869791666666 0.8336588541666666 0  0.8814453125 0.9451171875 0  0.5582987942628019 0.622421666543858 0  0.6817532446064828 0.6939001801354731 0  0.3830295138888889 0.9450968952922078 0  0.4140603937012541 0.05211333372716105 0  0.5535864501303013 0.3060591985391672 0  0.6560130086346878 0.2729726562211558 0  0.890203140221684 0.5948314305427268 0  0.7043857725999024 0.593980890020804 0  0.5105843922695152 0.8016828014338627 0  0.05365910753708378 0.7315110031682004 0  0.616904573672261 0.4621186633436136 0  0.5338511646455415 0.387875898899613 0  0.5231769258947843 0.4477682463140762 0  0.650302973237622 0.7370722302085519 0  0.3927483139621257 0.4662414504529014 0  0.8034595960585199 0.4972538342758211 0  0.7738337841682438 0.9496376207663251 0  0.7193737507158268 0.954685447650112 0  0.482525916480686 0.5528257169991676 0  0.2533501157346781 0.2809495420003238 0  0.3118487924482243 0.5702930126570319 0  0.6257598847669529 0.4104163315430518 0  0.1354166666666667 0.1955605158730158 0  0.04166666666666666 0.15625 0  0.3956448985530264 0.6174149462065157 0  0.8102897701818546 0.3938784238208349 0  0.2641154190013625 0.8344469561943118 0  0.642852220770013 0.5068794586563659 0  0.05271458179508221 0.355846947336007 0  0.7021551360070266 0.8921457280225779 0  0.5692125776683765 0.1328512638850284 0  0.5206162811937602 0.04865158770992991 0  0.6001838442201555 0.04540556991297563 0  0.2597716608242787 0.4118346398477178 0  0.4040584599473195 0.3179589136784675 0  0.1480337679295207 0.8941560631483065 0  0.1344356707112281 0.9466251177415842 0  0.7114696411829317 0.4983917389078826 0  0.7585704698442475 0.5751926345944629 0  0.2189131956390871 0.04022068508159698 0  0.2476935455192043 0.1123642267635843 0  0.185995005654517 0.1365524537205238 0  0.6223414373308711 0.643380839165121 0  0.5732602596637543 0.7190051747306219 0  0.268358222364537 0.6586246524467934 0  0.3265879848129173 0.2369791782191225 0  0.1267095595787346 0.7034787238999181 0  0.1115202922226038 0.6421997933884982 0  0.3128688392940203 0.07260997451790079 0  0.550724900485678 0.9253360991633187 0  0.7142608810459105 0.2384904702214873 0  0.7045869185243887 0.1871826897887429 0  0.890625 0.734375 0  0.953125 0.765625 0  0.2111812642821677 0.8286209446459138 0  0.9590293078204457 0.09375 0  0.953431269039847 0.1435719386408004 0  0.04097069217955424 0.90625 0  0.04656873096015299 0.8564280613591996 0  0.1078743037981226 0.8541621766048062 0  0.8921256962018773 0.1458378233951939 0  0.8521576979194619 0.1084496634207678 0  0.8655663982740958 0.05464346096571447 0  0.04005659640905543 0.09375 0  0.1001448316533417 0.04246776244228261 
[...]
<CellData  Scalars="f_8394-4"> 
<DataArray  type="Float64"  Name="f_8394-4"  format="ascii">7.6360898505890551e-01   4.0387936367892108e-01   4.8326717051906570e-01   2.5014009352977568e-01   6.3588825940552396e-01   3.8275263508575313e-01   7.7408537789462406e-01   9.0561493409658644e-01   8.0570979499741679e-01   6.5982717150016479e-01   4.9648158204255721e-01   1.0010791295834027e+00   1.0012477125303441e+00   9.9506058656749252e-01   9.9735074640037136e-01   9.6035021597892700e-01   9.8336459356031092e-01   7.7324774469639412e-01   8.5788767169460833e-01   7.2983311091920477e-01   6.8648642671049864e-01   9.4824980509674528e-01   9.5713175915890547e-01   8.6646528796151079e-01   7.5430647455818045e-01   9.3045397687508802e-01   1.0968022687104458e-01   7.8205660485098616e-01   9.0769061538287454e-01   6.7240187181694600e-01   9.1407699318289182e-01   9.2716324618945634e-01   8.0875388139387649e-01   1.0004079152346101e+00   5.4672912766471460e-01   6.1242121661908910e-01   8.2308544590009702e-01   8.9267589607892706e-01   6.9243679646089396e-01   7.4703469518229948e-01   7.3340155552925623e-01   8.2816235050667608e-01   9.8883192858275037e-01   9.9602589540471453e-01   3.9258652886432627e-01   9.9996190394175855e-01   9.8299011297716055e-01   2.7435581473097348e-01   9.8191994537695393e-01   9.9827831194276317e-01   9.9345508875402033e-01   9.7470016472217491e-01   7.2076246505851094e-01   5.8858806743767633e-01   6.3966814972384556e-01   9.9900204872431075e-01   9.6264388036213300e-01   6.9513288829753772e-01   5.0807788830448908e-01   8.3882035206142225e-01   8.7637284341671406e-01   7.7905697016172504e-01   3.7506409610056113e-01   6.7186547375168248e-01   5.8522303463194258e-01   9.1895831941712980e-01   8.5682953651594673e-01   8.2821576199094527e-01   8.9519495586547804e-01   9.9860729644832102e-01   9.9705825094638412e-01   9.9999434685939081e-01   4.6817077026367193e-01   8.6585805432988416e-01   9.6579198535258082e-01   9.5414371844111323e-01   9.8148905282447430e-01   9.3100537757739599e-01   9.3778812543346446e-01   7.0708807155230202e-01   6.6172829098605823e-01   6.6321397145372918e-01   7.1059014009828469e-01   9.3055918017654493e-01   9.1993642297120060e-01   7.9145858387380086e-01   8.7739663503491883e-01   9.4203819352193319e-01   9.1174485035033204e-01   8.1650484324008421e-01   7.1025472333463513e-01   7.9462598186005373e-01   2.8572595652847121e-01   3.0323866096598384e-01   4.2995538242656706e-01   4.5409705923516935e-01   4.9547591299919247e-01   9.9234361959366413e-01   9.9798571135571890e-01   5.7092955935808865e-01   5.3320146365796017e-01   6.9062970583807193e-01   6.1695153542039427e-01   9.5568530305860766e-01   9.3659607151590762e-01   9.2202476232980790e-01   8.9773023185472878e-01   8.0377552560193466e-01   7.2710996785888982e-01   8.1168337849434991e-01   8.3505250478563153e-01   8.7187972932999291e-01   8.9933974594419053e-01   7.7039282684026855e-01   7.4801118075111428e-01   8.2047990482288613e-01   8.1380626280846435e-01   9.3402850931681314e-01   1.0003033057506925e+00   9.9970473705820773e-01   9.7844171878303077e-01   9.9084293145767921e-01   7.3358811286278913e-01   8.4007316537872001e-01   5.8173727732888592e-01   5.9796096550528099e-01   9.8524013606689720e-01   9.9735137592928547e-01   9.7480289956351063e-01   9.0514689192770181e-01   9.2179381040972552e-01   9.2819346630728983e-01   9.9304661686025564e-01   9.8586454030602833e-01   9.4385707389896245e-01   9.7105296755942305e-01   9.5648469642084077e-01   9.0882603454668376e-01   7.6504943394001346e-01   8.3626332985102958e-01   4.2149821755693861e-01   3.6538927668239696e-01   4.0949721131487332e-01   3.2055319507506530e-01   6.2354700261668394e-01   5.8602480475485574e-01   1.0019039596260442e+00   9.9058849940314297e-01   9.9946111469960708e-01   1.0011586804636490e+00   8.0618338496850839e-01   7.6044957003879354e-01   4.6380671727524386e-01   4.0314740176675096e-01   5.0466206969085925e-01   7.3959595023536528e-01   7.1340116310605028e-01   6.6403562874689492e-01   7.1338212442668025e-01   7.3807666229938285e-01   6.5365131024408385e-01   8.0687630974960745e-01   8.5612252000978861e-01   9.7112172438708688e-01   9.5682326736496337e-01   1.0012101565572893e+00   1.0006679431575822e+00   9.4914144973567893e-01   8.7605979891970820e-01   5.6218536948796682e-01   5.6478067256633013e-01   9.4990613081281827e-01   9.6256333099744928e-01   9.5429597812624045e-01   9.7648419645873041e-01   8.5777027243918447e-01   8.6882789509497549e-01   8.0868290944663013e-01   7.1320466003062277e-01   9.6252161706165973e-01   9.7058282598251377e-01   4.9888510823897547e-01   4.8780219968622718e-01   9.9554590913743013e-01   1.0018555865469199e+00   1.0019012108446801e+00   1.0016477294522703e+00   7.5886810420053707e-01   5.3371125480278181e-01   5.2647270064710061e-01   9.6348341520324032e-01   9.7203738526450467e-01   7.8950933459618333e-01   7.7547409386848787e-01   6.7303108875974960e-01   7.1710496024458859e-01   6.8658561634953463e-01   7.3239895201804972e-01   9.4452007556185191e-01   9.0221623795499561e-01   8.7993887571157858e-01   9.1703099381267172e-01   3.0668819081704385e-01   4.8166125484473160e-01   9.0427472774371975e-01   9.1722145379001019e-01   7.2848001883542435e-01   6.5620971402269590e-01   4.6411347511821127e-01   5.5977829913095489e-01   5.6870344790566096e-01   5.1644111180758179e-01   4.5054031097971770e-01   4.8399261573640823e-01   4.1727379328532782e-01   1.0009226019422872e+00   9.9681296180952872e-01   1.0019120014210052e+00   9.6445353293606129e-01   9.9377001302666490e-01   7.3689148020565443e-01   7.5630752200718498e-01   8.8270207690045832e-01   9.1953447231114815e-01   8.4925405061859416e-01   7.2832891156801727e-01   2.8310245127762573e-01   2.5376789057098209e-01   9.9645195557274602e-01   9.8720953109253307e-01   6.4512260662908949e-01   6.5721509468610861e-01   8.7606323728557012e-01   8.2121682164054322e-01   8.7648241296606377e-01   9.2901316118911503e-01   8.5680466063450000e-01   8.0827600357501517e-01   6.4420550661438758e-01   9.2195839596707196e-01   8.8804920985812041e-01   9.7911815263366553e-01   9.7845953057516366e-01   9.4137568197040544e-01   9.6819015019309229e-01   9.6355504392146352e-01   8.6219952643351849e-01   8.2523724427247758e-01   8.7955148852855591e-01   4.5148246958880550e-01   5.5550585391393603e-01   4.9594247781611389e-01   4.6746106502761137e-01   6.4218762839108179e-01   6.9989723371879387e-01   3.0467384750544535e-01   3.4534292678667511e-01   3.5559705620665610e-01   4.2487067898861380e-01   9.8715742842799969e-01   9.9302631783245698e-01   7.9450019706768460e-02   8.4873439524911318e-02   1.3163689823162758e-01   9.9760285519135905e-01   9.9333734592339940e-01   5.4637844292123094e-01   4.8544052050060499e-01   4.8127330298946219e-01   6.3047625007633579e-01   6.9140873581744466e-01   6.8793142643211636e-01   7.0238539656821664e-01   7.5413718602871804e-01   9.1324787729543144e-01   9.4135975075617107e-01   8.7277305377537995e-01   8.8819553709989818e-01   1.0000341641554631e+00   9.9844461123963424e-01   9.8321442864615083e-01   9.3323197452820350e-01   8.7207447804177318e-01   9.0279589255414405e-01   1.0005649977555913e+00   9.7819312252632440e-01   9.9765683815244233e-01   9.5433650684574634e-01   9.5174979953298289e-01   9.7719490974636014e-01   8.0391660373395968e-01   9.0649390963117604e-01   8.9396725788304865e-01   5.9635640916501731e-01   5.1941583992568374e-01   2.1353075383233822e-01   2.7863581570478335e-01   6.1061823622624367e-01   6.7021355896666435e-01   7.1209947246928540e-01   7.5752968161291401e-01   7.7306044205462421e-01   9.9982469184199108e-01   9.8725399734850616e-01   9.9808899641770243e-01   9.8809324741688831e-01   6.0960231590230307e-01   9.4433635111459402e-01   9.5325584208898817e-01   9.5274148385499990e-01   9.6650421637357409e-01   8.8068652632291000e-01   8.1292961664045094e-01   7.3235077680624061e-01   7.1554010873483587e-01   8.4430504554908536e-01   8.4599340845546778e-01   9.2569083999188484e-01   9.3796040516132229e-01   1.8017039330264389e-01   2.4241442361068782e-01   2.5936847284347392e-01   9.8289061324566696e-01   9.7290470350886471e-01   9.5658026981923483e-01   9.5142485235788599e-01   9.4211504766784837e-01   9.0651171231285343e-01   9.8172698325196173e-01   9.9373839817597387e-01   9.9336615337713463e-01   9.8926874646275964e-01   3.7970639575337883e-01   4.8985048393106950e-01   8.0516209592014709e-01   8.6424709600620908e-01   8.6564675087892484e-01   8.8842035237638284e-01   7.3120851585159485e-01   7.1784374488694225e-01   1.0011184262332620e+00   1.0003530552772195e+00   8.3925856648276020e-01   8.2963967583214548e-01   9.2608343649755143e-01   9.1424360018835504e-01   8.8665279848133982e-01   9.2669225343757533e-01   9.2774249590929936e-01   8.8647632603327586e-01   8.3860311080027572e-01   9.9470061171092072e-01   9.9985846421211111e-01   9.9580579553586901e-01   9.9795241921850253e-01   7.8876035181218218e-01   6.7853534222112077e-01   4.6408526501821984e-01   3.4122749873360769e-01   8.8487553642882932e-01   8.8446079792144561e-01   7.8615350415876528e-01   8.0911317724313514e-01   9.9849958029539376e-01   9.9053405591489208e-01   9.6146557797915155e-01   9.6360723876420806e-01   9.6768098740502717e-01   9.9194817002150193e-01   9.7690241098576791e-01   9.7804663552433801e-01   7.9525158718465705e-01   7.2970160868517986e-01   7.9735874709755294e-01   7.8227360447219985e-01   9.9314755417375811e-01   9.9922751306419222e-01   9.6356030334127662e-01   9.7852000548594664e-01   9.7363511050356610e-01   9.8055376101119085e-01   6.5135751363248551e-01   6.9058981198351632e-01   8.8801599388320884e-01   8.6950739137828625e-01   8.0669363244868375e-01   8.1340864203444729e-01   8.6696530944665506e-01   8.5537474862725926e-01   9.8921437096999187e-01   9.7508510497692702e-01   7.4442353424280028e-01   7.2667455513158430e-01   9.7290111986756533e-01   9.5886897845088481e-01   1.0012588200453347e+00   9.9953027030743735e-01   9.9874186857927783e-01   8.7483471505306432e-01   8.9905939206162377e-01   5.2840454062059150e-01   5.1950861172687446e-01   7.8864850669977149e-01   8.4015678881700873e-01   8.3507182974274363e-01   8.5064867440778280e-01   2.4560459168810342e-01   3.6008107028567482e-01   2.4211355012463845e-01   2.0797910101648059e-01   8.3557278487216657e-01   8.3507468370005900e-01   9.5579574612882279e-01   9.3293212666008984e-01   8.6918494726118967e-01   8.7731389711598262e-01   9.3454252198975341e-01   9.1671272711228757e-01   4.1619394697052037e-01   4.3883851330361440e-01   1.0013405564393263e+00   1.0010900078349478e+00   5.9944376804570021e-01   5.7929115402962505e-01   6.1362778243493910e-01   6.1109260447074765e-01   5.5602842016033294e-01   6.4024504755537948e-01   6.1681561580422284e-01   6.2714302167842562e-01   8.5317391028676404e-01   8.3485284540416571e-01   8.9335643041518564e-01   8.8610611860295085e-01   9.2077565216972967e-01   9.6595870793617211e-01   9.6877529913341953e-01   9.7173056973337057e-01   3.0092025988643378e-01   2.8468795941926134e-01   2.7892743511678353e-01   3.8952120389997191e-01   3.3850066481963526e-01   3.4366626656225513e-01   9.4806699183779297e-01   9.5572672680009108e-01   9.8436332587811026e-01   9.6911773570264159e-01   8.3564929567348700e-01   7.7637457298471235e-01   5.7967722854360437e-01   4.9693229373319753e-01   7.0202391743301895e-01   7.5014211206842596e-01   6.9984874177207446e-01   6.8815967238069420e-01   4.2653007248698088e-01   3.7947330424030701e-01   9.9742982133792657e-01   9.9681297680144254e-01   8.4375250639088240e-01   8.1596559494706189e-01   8.3783438891178141e-01   8.3075290561191384e-01   1.0001942481487593e+00   1.0019217549036217e+00   9.7847056204945637e-01   9.9316392917453922e-01   8.5220634482757718e-01   8.2588199508537552e-01   8.8140033163657983e-01   8.3622283439309875e-01   9.3053251627540623e-01   7.9994913379387744e-01   8.2773457523645555e-01   7.6263542590477318e-01   8.2311146392645484e-01   8.0845145931214246e-01   9.0960939136841634e-01   8.6643102363728131e-01   8.1456264274610424e-01   8.1366469890606352e-01   7.8404728266197632e-01   8.5737729310150768e-01   2.2591299487657096e-01   2.1840823644120647e-01   1.6343612641449043e-01   1.3372417769164818e-01   8.2244512812204096e-01   8.5374267606059251e-01   8.3510246948233313e-01   9.6786129670851673e-01   9.4344609607000929e-01   7.6953407119460326e-01   6.7466819880921647e-01   7.2138553114708004e-01   6.1848439538671318e-01   5.5559982354729909e-01   5.0600568401618873e-01   6.6735756508494171e-01   6.2276742033631449e-01   7.7766419625216521e-01   7.9757892858799040e-01   9.4198720182780238e-01   9.2804076007128700e-01   7.3099876971339184e-01   6.6987492995273201e-01   2.0464136859194981e-01   2.6086521796267537e-01   9.2848485006295711e-01   7.3240162074299531e-01   7.1302808434132525e-01   9.6545504466413401e-01   9.2537735338211979e-01   9.8536577028823824e-01   9.6525224955983391e-01   7.9307705241522841e-01   8.5048981711381588e-01   8.1811164867590780e-01   8.4634621925060982e-01   8.3550381525589001e-01   8.2208440305666608e-01   1.0001718322549964e+00   9.9872150480007094e-01   7.5696147690051463e-01   7.3673794785503133e-01   8.9904813512448145e-01   9.1440447525410462e-01   7.4507278357574303e-01   7.6617149778157456e-01   5.1866010033856014e-01   5.4516092471608490e-01   9.1691686945564699e-01   8.9995256969877269e-01   8.0155601564137935e-01   8.6346842546657254e-01   8.7527795636542149e-01   9.3834657163139246e-01   3.5769321252337682e-01   3.7537767860852367e-01   9.7269294664585715e-01   9.7123037042740745e-01   9.7249839862890342e-01   9.5605204267694877e-01   4.8493540853185646e-01   5.3015580164676346e-01   9.8538057119669309e-01   9.8152065473051464e-01   3.5513375238707467e-01   2.9950961125618975e-01   6.3068762750939411e-01   6.5525536852817867e-01   6.4643118882229211e-01   6.9242388421885359e-01   1.0000361444760471e+00   1.0017897920709322e+00   1.0018858337152163e+00   9.9943221795245729e-01   9.7823289753035980e-01   9.7344509505390708e-01   8.1655349754574957e-01   8.1674227816062617e-01   8.7735781169857752e-01   9.1950868458468915e-01   9.2306928201071481e-01   9.2162471912746124e-01   9.8845695995853022e-01   6.3244552709698054e-01   5.9528728445465340e-01   4.9871591717938007e-01   5.7557873026183159e-01   1.0016408742192089e+00   9.9318423483783147e-01   9.9644235133859971e-01   6.9277878645693125e-01   7.2170493720389250e-01   6.2645114612956665e-01   6.1419412117754013e-01   8.3476959509766790e-01   8.6230722307683505e-01   1.0015476972330717e+00   1.0019166736596243e+00   6.9450362116522690e-01   6.8641733203474375e-01   1.0018059383546163e+00   9.9908157959116151e-01   9.9716751244178359e-01   9.9941707117368384e-01   8.8121927047658322e-01   8.7101758037306642e-01   9.5516317643606929e-01   9.5667931780665316e-01   8.1858480872132677e-01   8.0427381549713939e-01   3.2857013394867446e-01   3.9608915042087245e-01   3.2858288183634937e-01   3.4562198109108322e-01   4.9070416661715288e-01   4.5274628100945968e-01   6.6615120630360136e-01   4.7118387806187900e-01   9.9917783947300776e-01   9.9770695393009268e-01   9.9560072606811167e-01   9.8216939875146692e-01   1.0013011302948238e+00   9.8524753941646204e-01   9.7861262407327310e-01   9.9927502098508336e-01   9.9255287012784033e-01   7.0623683623023625e-01   6.7153989595096597e-01   9.7014637085149080e-01   9.6751616356429682e-01   1.0017948648552000e+00   1.0018043249280844e+00   8.5133183363568687e-01   8.8701420625107685e-01   5.5224518487982244e-01   5.6994539551343737e-01   9.8192483680478981e-01   9.9418444218328483e-01   9.4796658966754976e-01   9.2539722481719355e-01   7.4076192694500920e-01   7.6657916886234845e-01   1.8429062867537938e-01   2.3604386100067448e-01   7.8251189531864473e-01   7.9334555743362334e-01   1.0000804046176459e+00   5.5262477650366870e-01   5.4845570288211365e-01   6.4107178523434782e-01   5.8548296793076682e-01   6.2816420925477989e-01   6.2356048993600088e-01   6.2352253258102897e-01   6.5359316133491574e-01   8.6535596526607850e-01   9.1955419859120624e-01   9.5321324587844269e-01   9.5294818433745210e-01   9.2323627760130522e-01   9.1870985911766367e-01   8.7765522308208566e-01   8.9350812568835036e-01   9.4993460078843484e-01   9.5074353708111603e-01   8.0883084353200063e-01   8.0590493940604868e-01   4.9287899545455643e-01   4.4296074419192116e-01   6.5347998224839721e-01   6.5449450991391223e-01   6.9980858132152768e-01   6.7705834454771952e-01   7.5176266667840375e-01   7.1289480518995685e-01   9.5152239873490985e-01   9.5838650885586063e-01   4.8431101379867098e-01   4.3959974719631018e-01   6.8402641862743363e-01   6.6772493875247074e-01   9.9937459063058987e-01   9.9764806986475341e-01   9.3323287424899670e-01   9.0722517424857807e-01   9.9893118911420853e-01   1.0017570500565167e+00   1.6736952490326487e-01   2.6184442692785592e-01   4.4056041541487262e-01   9.3316599832538283e-01   9.5658821569489139e-01   9.5155128276655243e-01   9.3488107965817568e-01   8.8457746762402323e-01   9.1042796929713921e-01   9.8207748250455673e-01   9.8397921405520783e-01   9.9902374911963754e-01   7.4672614905552870e-01   7.1824015443467670e-01   4.8873095869830857e-01   5.0029118089968860e-01   8.0302545371957379e-01   8.2122212559225793e-01   8.3049761679616774e-01   7.8167411947809884e-01   7.1468354386963295e-01   6.7246720612463762e-01   4.3543069610230251e-01   4.7203712580324603e-01   9.3327906536127503e-01   9.4672876853945198e-01   4.3047923100154606e-01   4.2318332772024381e-01   7.4173295029582309e-01   7.9724011643275805e-01   6.5381131274853244e-01   6.2555441555493330e-01   9.4290853687530363e-01   9.3397776425185342e-01   4.2463511710231649e-01   3.9460184312536961e-01   8.1724664430367033e-01   8.5159907042983718e-01   7.9430517613150053e-01   7.9900461321510419e-01   9.3348842601847126e-01   9.3885504465784964e-01   7.1256208502488438e-01   7.4189872988966810e-01   6.4402618846646098e-01   6.4193014325504394e-01   9.8990151149740468e-01   9.9499319994104662e-01   1.0016467698816207e+00   1.0018458310873983e+00   6.4457737405531190e-01   6.0013206338047842e-01   6.9975237278109559e-01   6.8634769910674320e-01   8.3120380847708708e-01   8.0598066347850805e-01   9.8018242265516808e-01   9.9051047680400950e-01   9.8447676835845421e-01   9.8618988257845264e-01   1.0015792669138446e+00   1.0018567166206425e+00   9.9993276092323180e-01   9.8888738744400351e-01   2.3827620450228088e-01   2.9483482840299446e-01   8.7513240088065736e-01   8.5957000712628684e-01   8.7849362391235375e-01   8.6030655064145878e-01   9.3515607671261214e-01   9.4443438086674636e-01   9.6510697182291660e-01   9.7701562956889632e-01   6.2322566236798915e-01   5.9191102650443506e-01   9.2529218311632866e-01   8.9070538339021377e-01   5.5892491463874228e-01   5.4793373937953993e-01   3.6167588805368461e-01   2.9043711226910945e-01   9.1233971289990679e-01   9.0293549293634123e-01   6.8375811298187772e-01   7.5309736884742995e-01   6.7544089102606508e-01   7.1705638162550300e-01   7.1712726737291788e-01   7.1953915124322221e-01   7.3184979047413290e-01   7.3187353916955333e-01   9.5158566847966997e-01   9.4442928222730649e-01   6.1775177242891410e-01   6.5398193602215349e-01   9.7190424630078354e-01   9.7273356083174090e-01   7.4528471052583289e-01   7.6728689573479347e-01   4.6806277379503636e-01   5.2026873905717086e-01   8.0902150313666954e-01   7.9861149237008267e-01   9.3230094218759552e-01   9.3893037652324474e-01   5.1652174399007933e-01   4.5351443861742630e-01   9.9232808318256283e-01   9.9082886087363664e-01   8.0213342740251337e-01   7.7703138332510757e-01   9.9133948608901401e-01   9.9265641149990125e-01   9.5685671680080719e-01   9.5316328703221032e-01   9.8711700759517440e-01   9.8889299536925446e-01   4.5728429742407184e-01   4.3452408520639269e-01   8.3022092798200275e-01   8.2108678567433491e-01   3.5549170015756126e-01   7.1755262775042228e-01   7.502298