<?xml version="1.0"?>
<VTKFile type="UnstructuredGrid"  version="0.1"  >
<UnstructuredGrid>
<Piece  NumberOfPoints="1385" NumberOfCells="2640">
<Points>
<DataArray  type="Float64"  NumberOfComponents="3"  format="ascii">0 0 0  1 0 0  1 1 0  0 1 0  0.5 0 0  1 0.5 0  0.5 1 0  0 0.5 0  0.5 0.5 0  0 0.25 0  0.25 0 0  0.25 1 0  0 0.75 0  1 0.25 0  0.75 0 0  1 0.75 0  0.75 1 0  0.7083333333333333 0.2916666666666667 0  0.2916666666666666 0.7083333333333334 0  0.375 0.25 0  0.75 0.625 0  0.2569444444444444 0.4652777777777778 0  0.5366379310344828 0.7535919540229885 0  0.1875 0.1875 0  0.8125 0.8125 0  0.869047619047619 0.375 0  0.1450441919191919 0.6052714646464646 0  0.375 0.8690476190476191 0  0.5526960784313725 0.1825980392156862 0  0.8385416666666666 0.1614583333333334 0  0.1614583333333333 0.8385416666666667 0  0.6736111111111112 0.4652777777777778 0  0.1367521367521368 0.3477564102564102 0  0.6570970491253563 0.8648656830417855 0  0.5102479397556124 0.3386260301221938 0  0.3654513888888889 0.5737847222222222 0  0.6929750044954185 0.1362784921584263 0  0.388576102743835 0.411911725237599 0  0.6091269841269842 0.5942460317460317 0  0.875 0.6875 0  0.427278890279516 0.119889445139758 0  0.8544456845238095 0.5213913690476191 0  0.125 0 0  0 0.125 0  1 0.875 0  0.875 1 0  0.1280008648150532 0.4769292340226777 0  0.2695382451711197 0.3321750950221553 0  0.7031567235715964 0.7447810921428012 0  0.625 0 0  0.375 0 0  0.125 1 0  0.875 0 0  0 0.375 0  0 0.625 0  1 0.375 0  0.375 1 0  1 0.125 0  0 0.875 0  0.625 1 0  1 0.625 0  0.2979288363930608 0.1201429454643536 0  0.410919540229885 0.7484605911330049 0  0.5325041980395562 0.878905151526474 0  0.4831670727569156 0.6331060043826487 0  0.1735997378973042 0.7204747378973043 0  0.2534919507575758 0.5772372159090909 0  0.2633928571428572 0.8876488095238095 0  0.8199404761904761 0.2730654761904762 0  0.75830270586982 0.3919383189517417 0  0.5750282248382511 0.4237522353023667 0  0.6008360210023379 0.2794828358598495 0  0.08163442644334186 0.6821295860397322 0  0.08333333333333333 0.1875 0  0.2028380815996574 0.08844602719988583 0  0.2766521142611967 0.2325436572164097 0  0.90625 0.78125 0  0.890625 0.890625 0  0.7545696325008384 0.8973565441669461 0  0.5625 0.08086590340834317 0  0.09077380952380953 0.09077380952380952 0  0.4610923478694773 0.209034015149656 0  0.7542527598351648 0.5248380520595106 0  0.6459235536037465 0.3619913988405765 0  0.7560381768882634 0.20506142233852 0  0.07073252688172042 0.8125 0  0.0924753097241701 0.9078102849914793 0  0.9292674731182795 0.1875 0  0.9075246902758297 0.09218971500852073 0  0.8125 0.07073252688172045 0  0.2400955776842301 0.7869705776842302 0  0.9121050213379069 0.2781978201831695 0  0.7916878157143976 0.7239689078571988 0  0.9345238095238094 0.4375 0  0.4375 0.9345238095238095 0  0.3725616989755203 0.6651895248862173 0  0.06536271996350887 0.5625 0  0.9348362560379583 0.5625 0  0.456646798987055 0.8277247094351965 0  0.1875 0.9355758238725954 0  0.6169761231634859 0.6939779188977889 0  0.6226854751147515 0.7827911461419014 0  0.3305695598137626 0.7901697871282585 0  0.5865305325818898 0.5101085479043448 0  0.6622701297028378 0.2177663989757395 0  0.1354166666666667 0.2591702279202279 0  0 0.3125 0  0.2094429575680048 0.3936361846162499 0  0.836666296419157 0.607917407161686 0  0.6875 1 0  0.214261555450504 0.6492551722020035 0  0 0.4375 0  0.07731537126068377 0.40625 0  0.3427725432967068 0.4879566233699599 0  0.3550792513951871 0.3331953632609953 0  0.4462473953896857 0.2887834789342508 0  0.4747801464819794 0.417386052030127 0  0.8229836475148948 0.4443292349237342 0  0.7322605135514757 0.8199240278289671 0  0.6756431877205955 0.5468989748126787 0  0.1968419507215863 0.5194573482612496 0  0.3285590277777778 0.9345238095238095 0  0.8125 1 0  0.4198917601920009 0.5134893045331258 0  0.5232405503206691 0.2595791787880157 0  1 0.9375 0  0.1987510870015086 0.3025185951894431 0  0.5625 1 0  0.6005390654136388 0.9228110509230952 0  0.6411254848194414 0.07704872765442942 0  0.3357233162523242 0.1855113224530532 0  0.6730653396610877 0.6393887462324165 0  0.310966987234063 0.6240019765311626 0  0.7368737836204349 0.07457755202327881 0  0.6192316414418171 0.1485238406378594 0  0.5432429670607106 0.678552703844006 0  0.4754371679695679 0.7103946803120881 0  0.07501324890749672 0.3043839897335739 0  0.5358146975860403 0.5688321463205916 0  0.3115271739500156 0.3982137365971444 0  0.3625191397122174 0.0767854603650549 0  0.5024029442563831 0.1264128223758444 0  0.4375 0 0  0.4699946908887376 0.06379961173775725 0  0.9375 0.71875 0  0.9272105898044465 0.635671179608893 0  0.9375 1 0  0.6690971819568612 0.9331530898202766 0  0.1073454944778885 0.7499206387638554 0  0.8699082999280406 0.2232403652524313 0  0.5773118091863964 0.3548027349159383 0  0.1354166666666667 0.1428571428571428 0  0.3125 0 0  0.8241684193077341 0.9257452995055244 0  0.4352314948354036 0.3586940847489378 0  0.4351301473778832 0.5819726043539077 0  0.8073232928518163 0.3419398170341962 0  0.7775949246947366 0.1298519409204575 0  0.6875 0 0  0.7413513991851041 0.457933324954483 0  0.939453125 0.841796875 0  0.5630355154606987 0.8171875156478349 0  0.9345238095238095 0.3461466592368577 0  0.9375 0 0  1 0.0625 0  0.0625 1 0  0 0.9375 0  0.06552178593177167 0.4969053669623468 0  0.1424866619031703 0.4130277709291224 0  0.1275287182444726 0.5422946908002588 0  0.2637686595586339 0.06413888464529549 0  0.2524263535491086 0.1697437503243817 0  0.7367218397988525 0.6888573970660841 0  0.0625 0 0  0 0.0625 0  0.8463594539285995 0.7578283617857982 0  0.3128751192101563 0.2851997374369947 0  0.4015281788351144 0.1806421385113692 0  0.1910251795116588 0.4553332197174453 0  0.287797471442006 0.5222621440543902 0  0.3962628745986055 0.8097380085535307 0  0.3505895299554843 0.7304878890838692 0  0.5019151500495276 0.9356042615328103 0  0.9374389419410134 0.4999931039076005 0  0.3125 1 0  0.1875 1 0  1 0.5625 0  0.4375 1 0  1 0.3125 0  1 0.4375 0  0.8125 0 0  1 0.1875 0  0.5625 0 0  0.1875 0 0  0 0.1875 0  0 0.5625 0  0 0.6875 0  0 0.8125 0  1 0.6875 0  1 0.8125 0  0.8021696218581627 0.6612893947866073 0  0.06154922295426143 0.6239401126946708 0  0.9359375 0.9359375 0  0.4666158024849896 0.7691515918155014 0  0.2318201265217025 0.7064974250277525 0  0.1565954253579966 0.6635489312486841 0  0.1598132503680848 0.7787147500325552 0  0.3146529991605639 0.8510876378205265 0  0.1461873209418733 0.05982804528877814 0  0.06109554988524315 0.2446551776247686 0  0.8054950308560754 0.5564226538848541 0  0.470541749491976 0.8853316336952531 0  0.6948472567465137 0.4042308563372457 0  0.8802828472348889 0.4658893256343853 0  0.6788075634946739 0.7974194205806069 0  0.2155048659603867 0.2428201584940968 0  0.8131223143423806 0.2132171049028394 0  0.4330798005432235 0.6671274900735726 0  0.6015279126162613 0.2187368078743274 0  0.8061636571464289 0.8703766630361714 0  0.7008230445061776 0.3478568388444072 0  0.8638466246958771 0.3147095987735538 0  0.204801534004265 0.8789209409594009 0  0.2449006736431132 0.9424182882803838 0  0.7611268409371427 0.2643056884799992 0  0.7552800864046191 0.7678006649959446 0  0.5983639638906616 0.864113435029236 0  0.1956559506814437 0.577281203577426 0  0.3527670268164207 0.1320469097565204 0  0.7530364577483248 0.3262386077083089 0  0.4535919187979363 0.4690107087451527 0  0.8824869791666666 0.8336588541666666 0  0.8814453125 0.9451171875 0  0.5582987942628019 0.622421666543858 0  0.6817532446064828 0.6939001801354731 0  0.3830295138888889 0.9450968952922078 0  0.4140603937012541 0.05211333372716105 0  0.5535864501303013 0.3060591985391672 0  0.6560130086346878 0.2729726562211558 0  0.890203140221684 0.5948314305427268 0  0.7043857725999024 0.593980890020804 0  0.5105843922695152 0.8016828014338627 0  0.05365910753708378 0.7315110031682004 0  0.616904573672261 0.4621186633436136 0  0.5338511646455415 0.387875898899613 0  0.5231769258947843 0.4477682463140762 0  0.650302973237622 0.7370722302085519 0  0.3927483139621257 0.4662414504529014 0  0.8034595960585199 0.4972538342758211 0  0.7738337841682438 0.9496376207663251 0  0.7193737507158268 0.954685447650112 0  0.482525916480686 0.5528257169991676 0  0.2533501157346781 0.2809495420003238 0  0.3118487924482243 0.5702930126570319 0  0.6257598847669529 0.4104163315430518 0  0.1354166666666667 0.1955605158730158 0  0.04166666666666666 0.15625 0  0.3956448985530264 0.6174149462065157 0  0.8102897701818546 0.3938784238208349 0  0.2641154190013625 0.8344469561943118 0  0.642852220770013 0.5068794586563659 0  0.05271458179508221 0.355846947336007 0  0.7021551360070266 0.8921457280225779 0  0.5692125776683765 0.1328512638850284 0  0.5206162811937602 0.04865158770992991 0  0.6001838442201555 0.04540556991297563 0  0.2597716608242787 0.4118346398477178 0  0.4040584599473195 0.3179589136784675 0  0.1480337679295207 0.8941560631483065 0  0.1344356707112281 0.9466251177415842 0  0.7114696411829317 0.4983917389078826 0  0.7585704698442475 0.5751926345944629 0  0.2189131956390871 0.04022068508159698 0  0.2476935455192043 0.1123642267635843 0  0.185995005654517 0.1365524537205238 0  0.6223414373308711 0.643380839165121 0  0.5732602596637543 0.7190051747306219 0  0.268358222364537 0.6586246524467934 0  0.3265879848129173 0.2369791782191225 0  0.1267095595787346 0.7034787238999181 0  0.1115202922226038 0.6421997933884982 0  0.3128688392940203 0.07260997451790079 0  0.550724900485678 0.9253360991633187 0  0.7142608810459105 0.2384904702214873 0  0.7045869185243887 0.1871826897887429 0  0.890625 0.734375 0  0.953125 0.765625 0  0.2111812642821677 0.8286209446459138 0  0.9590293078204457 0.09375 0  0.953431269039847 0.1435719386408004 0  0.04097069217955424 0.90625 0  0.04656873096015299 0.8564280613591996 0  0.1078743037981226 0.8541621766048062 0  0.8921256962018773 0.1458378233951939 0  0.8521576979194619 0.1084496634207678 0  0.8655663982740958 0.05464346096571447 0  0.04005659640905543 0.09375 0  0.1001448316533417 0.04246776244228261 
[...]
<CellData  Scalars="f_8394-4"> 
<DataArray  type="Float64"  Name="f_8394-4"  format="ascii">7.6262364508542690e-01   4.0335874646504322e-01   4.8264245819785800e-01   2.4982983770099521e-01   6.3506505271722058e-01   3.8226033761726536e-01   7.7309750308470726e-01   9.0446073768187663e-01   8.0469504041876871e-01   6.5897138557010115e-01   4.9584743212720150e-01   9.9978982183661325e-01   9.9995681335393183e-01   9.9377729065155562e-01   9.9605808201390234e-01   9.5911186594062459e-01   9.8209598449044100e-01   7.7224808013347035e-01   8.5677862375362435e-01   7.2888771325762991e-01   6.8559984412015473e-01   9.4702975428670466e-01   9.5589791717116157e-01   8.6534247682811982e-01   7.5334270994149310e-01   9.2925619653227620e-01   1.0965379363977427e-01   7.8104890223588319e-01   9.0653025210282845e-01   6.7152967104756656e-01   9.1289917268962617e-01   9.2596717673598461e-01   8.0771302392338906e-01   9.9911288767292139e-01   5.4602575021996402e-01   6.1162974388968105e-01   8.2202761982813910e-01   8.9152250560530610e-01   6.9155959714741888e-01   7.4607188347852771e-01   7.3245604746111459e-01   8.2709481310151023e-01   9.8755226422995890e-01   9.9473546934424983e-01   3.9209208910358706e-01   9.9870263657303859e-01   9.8171916919313451e-01   2.7402172306287403e-01   9.8070072456564006e-01   9.9699938903788754e-01   9.9217590725348881e-01   9.7345440028748276e-01   7.1983362301597098e-01   5.8783714450741664e-01   6.3884165526398318e-01   9.9771654251635589e-01   9.6139822407130626e-01   6.9424406912102887e-01   5.0742516301945340e-01   8.3774075812665805e-01   8.7524560955920216e-01   7.7808156928513250e-01   3.7462242932189288e-01   6.7099716365562423e-01   5.8448532512542328e-01   9.1777264047012885e-01   8.5572127165152423e-01   8.2716550621071439e-01   8.9404895753277136e-01   9.9734582391482185e-01   9.9577626662427809e-01   9.9870388976653068e-01   4.6757078216241449e-01   8.6473924950066905e-01   9.6454348890930464e-01   9.5290797905340230e-01   9.8021926162094064e-01   9.2980269365249801e-01   9.3657358856909878e-01   7.0617978229891798e-01   6.6087118143484480e-01   6.6236205409667004e-01   7.0967181298948623e-01   9.2937276769691513e-01   9.1874785072410770e-01   7.9043957354211525e-01   8.7626523244877108e-01   9.4082323308977844e-01   9.1057261543614521e-01   8.1545215437556495e-01   7.0933900806243788e-01   7.9359869104106018e-01   2.8539097288065374e-01   3.0285240674818764e-01   4.2939620545959806e-01   4.5351871867468746e-01   4.9484236961135591e-01   9.9109735114884556e-01   9.9670517956299243e-01   5.7019925763176926e-01   5.3253299931863363e-01   6.8973992703649456e-01   6.1615994191574641e-01   9.5444867918941834e-01   9.3538461926312289e-01   9.2083000037727680e-01   8.9657577463934390e-01   8.0273927734872952e-01   7.2617354702699555e-01   8.1064643320466434e-01   8.3397396067048479e-01   8.7076118862673679e-01   8.9818131755391095e-01   7.6940047266123079e-01   7.4705727023951296e-01   8.1942843763793227e-01   8.1275641846076074e-01   9.3282566111522836e-01   9.9900981356064278e-01   9.9841801992264179e-01   9.7717559057007397e-01   9.8957551325124737e-01   7.3264692381500796e-01   8.3899702752478122e-01   5.8100825784063026e-01   5.9719270205874320e-01   9.8396682309749506e-01   9.9607228163228401e-01   9.7355083570794909e-01   9.0398071933506519e-01   9.2060323470983740e-01   9.2699191848516194e-01   9.9176819426982432e-01   9.8458992846185134e-01   9.4264457374284216e-01   9.6980213627282552e-01   9.5524626884653963e-01   9.0765007472029147e-01   7.6406404966201391e-01   8.3517868301491716e-01   4.2095255871685261e-01   3.6492353000742783e-01   4.0898111728037856e-01   3.2017168027707804e-01   6.2274334579612156e-01   5.8526777342293890e-01   1.0006172054836620e+00   9.8930594412154138e-01   9.9816746268720946e-01   9.9988247295237376e-01   8.0514428131244764e-01   7.5946982619746872e-01   4.6322514959539818e-01   4.0264954494350913e-01   5.0401669297341045e-01   7.3864686125466295e-01   7.1248269889988247e-01   6.6317920037083500e-01   7.1246819814436546e-01   7.3712687755328554e-01   6.5280725536048645e-01   8.0583643389283754e-01   8.5501773045650808e-01   9.6986757811881175e-01   9.5559228486178815e-01   9.9991607123794557e-01   9.9937560286218807e-01   9.4791387121088000e-01   8.7492870572469539e-01   5.6146530182008347e-01   5.6405407176672939e-01   9.4868331621168511e-01   9.6135977394093752e-01   9.5308108533769709e-01   9.7524915889898967e-01   8.5666366049906129e-01   8.6770463106849727e-01   8.0763983462279132e-01   7.1227987831478257e-01   9.6132411786080552e-01   9.6935340970163286e-01   4.9824693933561159e-01   4.8717353769036204e-01   9.9428482070300928e-01   1.0005956150384681e+00   1.0006209447797632e+00   1.0003789795269569e+00   7.5789070138138226e-01   5.3302087492981542e-01   5.2579338516961771e-01   9.6223772457677192e-01   9.7078307911331974e-01   7.8848996146460359e-01   7.7447314901397635e-01   6.7219549844991766e-01   7.1618344114378574e-01   6.8570846329810953e-01   7.3144859645358951e-01   9.4329996906941893e-01   9.0104944073558391e-01   8.7880420086262334e-01   9.1585417651565471e-01   3.0630782810906382e-01   4.8104301107026098e-01   9.0310727207745767e-01   9.1603518098781089e-01   7.2754069099838514e-01   6.5536092690288805e-01   4.6355283906484307e-01   5.5906608803829705e-01   5.6797536916900471e-01   5.1579148052870538e-01   4.4996235575683757e-01   4.8340688705750845e-01   4.1674787228109844e-01   9.9964743371756259e-01   9.9554353615625546e-01   1.0006216009193585e+00   9.6324939636966356e-01   9.9252602671091528e-01   7.3594688253097451e-01   7.5533910909433799e-01   8.8156324096570549e-01   9.1834643849344377e-01   8.4815862200685788e-01   7.2738877670779578e-01   2.8274460770038140e-01   2.5347566983389336e-01   9.9516273280403278e-01   9.8593812867221609e-01   6.4428965215385603e-01   6.5637206609196574e-01   8.7493303511927101e-01   8.2015795962029669e-01   8.7535371335703716e-01   9.2781010946502718e-01   8.5570606431154983e-01   8.0723311314505442e-01   6.4339351648461707e-01   9.2076883313415725e-01   8.8689980339459884e-01   9.7787213282662178e-01   9.7719192628807827e-01   9.4017092505995348e-01   9.6694401207827341e-01   9.6231505297698139e-01   8.6109443768214433e-01   8.2422332692959333e-01   8.7842154795085237e-01   4.5093148190304932e-01   5.5480232324261958e-01   4.9532609095939711e-01   4.6685814849944418e-01   6.4136319891177418e-01   6.9899845366889746e-01   3.0430630287799199e-01   3.4493539065419498e-01   3.5514377033297090e-01   4.2433107710567164e-01   9.8588757343521494e-01   9.9174705042508482e-01   7.9415509629026854e-02   8.4795217984136473e-02   1.3155122384534376e-01   9.9631960535772290e-01   9.9205385879023988e-01   5.4568071642835614e-01   4.8481421091636656e-01   4.8065836447257498e-01   6.2966624464648091e-01   6.9051913890010697e-01   6.8704507431904083e-01   7.0147926925454607e-01   7.5317362769362972e-01   9.1207034002242038e-01   9.4014372630430043e-01   8.7164416083856255e-01   8.8704818226921556e-01   9.9877441358314578e-01   9.9716904625806935e-01   9.8196871763650517e-01   9.3204045077798470e-01   8.7096213749929285e-01   9.0165347932684181e-01   9.9931163146691226e-01   9.7693321350785167e-01   9.9639868304657808e-01   9.5313069715493082e-01   9.5055659196508580e-01   9.7594592844462125e-01   8.0292298068649448e-01   9.0532785606833610e-01   8.9281604423003669e-01   5.9558886099350705e-01   5.1876097491687201e-01   2.1329714006429959e-01   2.7830958154916768e-01   6.0987423941009644e-01   6.6934980414717782e-01   7.1121301721160546e-01   7.5656676694841596e-01   7.7209228561092336e-01   9.9856192428059809e-01   9.8602005298930218e-01   9.9680362679731005e-01   9.8682001100917738e-01   6.0886174198420251e-01   9.4314422538773990e-01   9.5209847575998485e-01   9.5152058383187266e-01   9.6525524757187608e-01   8.7954665163032431e-01   8.1187694170520464e-01   7.3140600482094575e-01   7.1461774165215042e-01   8.4321776005655469e-01   8.4491008373562038e-01   9.2450450432629316e-01   9.3674657126546834e-01   1.7995644487120779e-01   2.4211777927504197e-01   2.5907340851699201e-01   9.8161692497458009e-01   9.7165015274358069e-01   9.5534381606088459e-01   9.5020200482233996e-01   9.4090294472983205e-01   9.0534297005637332e-01   9.8045919233986523e-01   9.9246196200884940e-01   9.9208077924198335e-01   9.8798760434640942e-01   3.7922546624435449e-01   4.8922089146723408e-01   8.0412590638280046e-01   8.6312994078429583e-01   8.6453375890295348e-01   8.8727291796549967e-01   7.3026736498408773e-01   7.1691787734652312e-01   9.9982349503244250e-01   9.9905617858897178e-01   8.3817505673565440e-01   8.2856580070316144e-01   9.2488780995697228e-01   9.1306205465612411e-01   8.8551112047657898e-01   9.2550257293602778e-01   9.2657459671036824e-01   8.8533501451944996e-01   8.3752177281329387e-01   9.9342275108363354e-01   9.9857045904258090e-01   9.9452528761776882e-01   9.9668371954908985e-01   7.8773732638569482e-01   6.7766369607358212e-01   4.6348834419485829e-01   3.4082686319586181e-01   8.8373540804173178e-01   8.8332378527353006e-01   7.8513590247507170e-01   8.0807048554737071e-01   9.9721138133902976e-01   9.8927545420186946e-01   9.6028358333476271e-01   9.6236370346864564e-01   9.6643038679489546e-01   9.9066549869963860e-01   9.7564406162550188e-01   9.7682412344965519e-01   7.9422622881066707e-01   7.2876580290372062e-01   7.9632832685673838e-01   7.8126241589061574e-01   9.9186527654293255e-01   9.9797541515555344e-01   9.6231239901666354e-01   9.7725028154960059e-01   9.7237352048824477e-01   9.7928324139698941e-01   6.5052536870724387e-01   6.8970542218248565e-01   8.8687372410406584e-01   8.6838672603767941e-01   8.0565386666220939e-01   8.1236053043170386e-01   8.6584763966383271e-01   8.5427020804583687e-01   9.8793595532532918e-01   9.7382548308026429e-01   7.4346738188240502e-01   7.2573724654049510e-01   9.7164974696914019e-01   9.5762952566965109e-01   9.9997507205833314e-01   9.9824258683832434e-01   9.9747456588150074e-01   8.7370678382862088e-01   8.9790138390083429e-01   5.2772741805596823e-01   5.1884211869911767e-01   7.8762873291113200e-01   8.3907731115901274e-01   8.3399325045872197e-01   8.4955087643811700e-01   2.4529783441635014e-01   3.5962353546011167e-01   2.4183125567252908e-01   2.0775721485484119e-01   8.3450304240345485e-01   8.3400079130692861e-01   9.5456888027030506e-01   9.3173049897800553e-01   8.6806741018316014e-01   8.7618616301698593e-01   9.3333227662536611e-01   9.1552891279610937e-01   4.1570430805877223e-01   4.3830740002349872e-01   1.0000501869542187e+00   9.9979433511027260e-01   5.9867468658250000e-01   5.7856508120376193e-01   6.1284494755936147e-01   6.1034161979229251e-01   5.5530752542316353e-01   6.3941731782182853e-01   6.1601706803833500e-01   6.2633611222703744e-01   8.5207317466247279e-01   8.3378854585224582e-01   8.9221231397005918e-01   8.8497540683006126e-01   9.1958721396482224e-01   9.6471500949840594e-01   9.6752107429964562e-01   9.7046894848439946e-01   3.0055819689178276e-01   2.8433474591315100e-01   2.7859425708389568e-01   3.8902665253787849e-01   3.3807164144750984e-01   3.4322786995017063e-01   9.4684775683714983e-01   9.5449093708474131e-01   9.8308793075457290e-01   9.6786350594845172e-01   8.3457183833652970e-01   7.7536959007852480e-01   5.7893608777507166e-01   4.9629201628123826e-01   7.0111836142927786e-01   7.4917026683311760e-01   6.9894439513829631e-01   6.8727601457819998e-01   4.2598920410909957e-01   3.7899450221700531e-01   9.9614128372926281e-01   9.9552561544361540e-01   8.4265989097300786e-01   8.1490960438122706e-01   8.3675242071551659e-01   8.2968306294667860e-01   9.9891330027047420e-01   1.0006255440128105e+00   9.7725115404304352e-01   9.9190545060866686e-01   8.5111210492667311e-01   8.2481656280247750e-01   8.8028006327695008e-01   8.3515503380234535e-01   9.2934378854708732e-01   7.9893376475164379e-01   8.2667676808080481e-01   7.6167767106531648e-01   8.2204826219637617e-01   8.0740828961941236e-01   9.0846169422599787e-01   8.6531586619164103e-01   8.1350957671160473e-01   8.1262766311916612e-01   7.8305370816378905e-01   8.5628271544270229e-01   2.2563032855114185e-01   2.1816489200047642e-01   1.6327981786078893e-01   1.3363125002859580e-01   8.2142068361508247e-01   8.5266455175856881e-01   8.3406940551987729e-01   9.6662051363290602e-01   9.4222612958447760e-01   7.6854212192366633e-01   6.7380443074370200e-01   7.2045555397355621e-01   6.1768671431114908e-01   5.5488122794196471e-01   5.0535531499483255e-01   6.6649663265310044e-01   6.2197056660577066e-01   7.7667759677527937e-01   7.9654905501444173e-01   9.4076707887472011e-01   9.2683908430117601e-01   7.3005757907895574e-01   6.6900867967969202e-01   2.0440216337137893e-01   2.6053713792605354e-01   9.2731850535949700e-01   7.3147549735753625e-01   7.1213426350708819e-01   9.6424584165411531e-01   9.2418149019929052e-01   9.8412425801325920e-01   9.6404357608458158e-01   7.9205489820911490e-01   8.4938654275414383e-01   8.1705578032757153e-01   8.4525033607085165e-01   8.3442836751248350e-01   8.2102183020449415e-01   9.9888098043104434e-01   9.9743091794423799e-01   7.5598428247430283e-01   7.3578189747005773e-01   8.9788923721759750e-01   9.1322291011349765e-01   7.4411656563328010e-01   7.6518435972127907e-01   5.1799632991594835e-01   5.4445210639669817e-01   9.1573824004758675e-01   8.9879169507530099e-01   8.0052017569212230e-01   8.6235411491778546e-01   8.7414959682794868e-01   9.3716258176145861e-01   3.5724214654912395e-01   3.7492771075915543e-01   9.7146909317045682e-01   9.6999184355384438e-01   9.7124794021971661e-01   9.5481383256808527e-01   4.8431199957914889e-01   5.2947559133351696e-01   9.8412853311681259e-01   9.8028807085989067e-01   3.5469702072130183e-01   2.9915363355893626e-01   6.2988924790830125e-01   6.5442024649514641e-01   6.4559701705643102e-01   6.9152652087130140e-01   9.9874364031230634e-01   1.0004970172502630e+00   1.0005945273621748e+00   9.9814930756435294e-01   9.7696894283155677e-01   9.7218826155395610e-01   8.1550281368843736e-01   8.1569179774525857e-01   8.7622271804922724e-01   9.1831982601848394e-01   9.2188022365516042e-01   9.2043711538423056e-01   9.8719855092663744e-01   6.3164983617812687e-01   5.9456712315741012e-01   4.9808124383054592e-01   5.7484752747928436e-01   1.0003641105322865e+00   9.9189742651799540e-01   9.9515368387716197e-01   6.9188422019575169e-01   7.2077443206835756e-01   6.2567840204627934e-01   6.1343760547604542e-01   8.3369203025751104e-01   8.6119467470311284e-01   1.0002583858253378e+00   1.0006198529375299e+00   6.9362209916545370e-01   6.8555946147300273e-01   1.0005253411361625e+00   9.9782425095715799e-01   9.9587817185050642e-01   9.9812727906187548e-01   8.8007733485556494e-01   8.6988975638939181e-01   9.5396698719439332e-01   9.5547832957657286e-01   8.1752298525811340e-01   8.0323359736588718e-01   3.2814840849333388e-01   3.9558478360486343e-01   3.2816304838579802e-01   3.4517839756529534e-01   4.9007944117624053e-01   4.5216703715045287e-01   6.6531970414283170e-01   4.7058930959925099e-01   9.9791738838059829e-01   9.9646069834119899e-01   9.9435128192149891e-01   9.8090660966943488e-01   1.0000390496050240e+00   9.8397126271967339e-01   9.7734850379884053e-01   9.9798392037733685e-01   9.9127370263306824e-01   7.0532965597605102e-01   6.7067450857725452e-01   9.6889969491008543e-01   9.6628265544004155e-01   1.0004999815801310e+00   1.0005073085409613e+00   8.5023268408578101e-01   8.8587031049725351e-01   5.5160537905525908e-01   5.6927067170211176e-01   9.8067654348184707e-01   9.9289779552698143e-01   9.4674316534062841e-01   9.2420173946926376e-01   7.3980342720007830e-01   7.6558949021763745e-01   1.8409792541200032e-01   2.3575541549667409e-01   7.8150139861829004e-01   7.9232503074122629e-01   9.9880045900281433e-01   5.5191533087572298e-01   5.4774824903285890e-01   6.4024704479436156e-01   5.8473155431956370e-01   6.2735220284472248e-01   6.2275347342971887e-01   6.2272467128710984e-01   6.5275160701597912e-01   8.6423912450192841e-01   9.1836733752158339e-01   9.5198430457928040e-01   9.5171667885066669e-01   9.2204595374426657e-01   9.1752012764819624e-01   8.7652075905156923e-01   8.9235560319389040e-01   9.4871148455524623e-01   9.4952880546647744e-01   8.0778716416055807e-01   8.0486440617638710e-01   4.9224459284810179e-01   4.4239917527400890e-01   6.5264585855474966e-01   6.5365270459014191e-01   6.9891083576822588e-01   6.7618613854875298e-01   7.5078993314547271e-01   7.1197844734752880e-01   9.5029153345925788e-01   9.5715534697317373e-01   4.8368728154820662e-01   4.3904126027899348e-01   6.8314231272777315e-01   6.6686449665918979e-01   9.9808165666593640e-01   9.9636184857008947e-01   9.3202600608718666e-01   9.0605472682666843e-01   9.9767103607120777e-01   1.0004664257745763e+00   1.6721222456359544e-01   2.6153412911263302e-01   4.4003219070584620e-01   9.3195758921016691e-01   9.5536018971760028e-01   9.5032813631805668e-01   9.3367493475276286e-01   8.8343713087114217e-01   9.0925176275913333e-01   9.8081270341370874e-01   9.8270537277859693e-01   9.9775922154921270e-01   7.4576614416935683e-01   7.1731347599378337e-01   4.8810679041287369e-01   4.9965029763920404e-01   8.0199944059044415e-01   8.2017029175183609e-01   8.2942568177580056e-01   7.8066251256346830e-01   7.1376305085003267e-01   6.7159456810218976e-01   4.3487532977258458e-01   4.7143131571174890e-01   9.3207805865325644e-01   9.4550312443989415e-01   4.2992449785552672e-01   4.2263627475846977e-01   7.4077824633994971e-01   7.9621871259046173e-01   6.5296459669483453e-01   6.2475653328206637e-01   9.4170252218235018e-01   9.3279891411218818e-01   4.2408717860991152e-01   3.9410060001793357e-01   8.1619496900251876e-01   8.5050018988939169e-01   7.9328152245936301e-01   7.9797555409926424e-01   9.3228187786159389e-01   9.3763770877638808e-01   7.1164978192865436e-01   7.4094452446810466e-01   6.4320452268581318e-01   6.4111003564530633e-01   9.8862996476924259e-01   9.9371078033423621e-01   1.0003613820983077e+00   1.0005771920343054e+00   6.4375172365743505e-01   5.9936186769749722e-01   6.9885474579153639e-01   6.8546453632261661e-01   8.3013467087379167e-01   8.0493729696191885e-01   9.7891755266572156e-01   9.8923167452357075e-01   9.8320624704835213e-01   9.8491874597743967e-01   1.0002830677491521e+00   1.0005657713482357e+00   9.9864509452919903e-01   9.8760829275993889e-01   2.3797724873200235e-01   2.9449667380300887e-01   8.7400812421216090e-01   8.5846749514226006e-01   8.7735892077673294e-01   8.5919126846336658e-01   9.3395437973470241e-01   9.4322740886978007e-01   9.6387517002710221e-01   9.7578789839505875e-01   6.2242631195589004e-01   5.9115255381733900e-01   9.2410141252133937e-01   8.8955431398696994e-01   5.5823315647650962e-01   5.4725881037601731e-01   3.6123541075424132e-01   2.9011373522040002e-01   9.1115881187618764e-01   9.0177063136200608e-01   6.8289005544651360e-01   7.5212676449287719e-01   6.7458115670511420e-01   7.1614465916267034e-01   7.1620423033968439e-01   7.1861303361955808e-01   7.3091114488307873e-01   7.3093191755325970e-01   9.5044614648099146e-01   9.4327900275933718e-01   6.1696128645983295e-01   6.5314166361650028e-01   9.7064594459636666e-01   9.7147542706828205e-01   7.4432010695892159e-01   7.6629429928721438e-01   4.6748009907186083e-01   5.1960246532797416e-01   8.0801993698018559e-01   7.9761159866350317e-01   9.3109657671076695e-01   9.3771848736336405e-01   5.1585826238531374e-01   4.5295702051020242e-01   9.9104259971951336e-01   9.8954507266297154e-01   8.0109809063830506e-01   7.7602975623788406e-01   9.9006885924795296e-01   9.9138610785797898e-01   9.5563157906945095e-01   9.5193547122434874e-01   9.8587657618147762e-01   9.8764676214755298e-01   4.5669656488957988e-01   4.3396263067454061e-01   8.2914214249348495e-01   8.2002753592041100e-01   3.5507264448843850e-01   7.1662967930225574e-01   7.492674