<?xml version="1.0"?>
<VTKFile type="UnstructuredGrid"  version="0.1"  >
<UnstructuredGrid>
<Piece  NumberOfPoints="1385" NumberOfCells="2640">
<Points>
<DataArray  type="Float64"  NumberOfComponents="3"  format="ascii">0 0 0  1 0 0  1 1 0  0 1 0  0.5 0 0  1 0.5 0  0.5 1 0  0 0.5 0  0.5 0.5 0  0 0.25 0  0.25 0 0  0.25 1 0  0 0.75 0  1 0.25 0  0.75 0 0  1 0.75 0  0.75 1 0  0.7083333333333333 0.2916666666666667 0  0.2916666666666666 0.7083333333333334 0  0.375 0.25 0  0.75 0.625 0  0.2569444444444444 0.4652777777777778 0  0.5366379310344828 0.7535919540229885 0  0.1875 0.1875 0  0.8125 0.8125 0  0.869047619047619 0.375 0  0.1450441919191919 0.6052714646464646 0  0.375 0.8690476190476191 0  0.5526960784313725 0.1825980392156862 0  0.8385416666666666 0.1614583333333334 0  0.1614583333333333 0.8385416666666667 0  0.6736111111111112 0.4652777777777778 0  0.1367521367521368 0.3477564102564102 0  0.6570970491253563 0.8648656830417855 0  0.5102479397556124 0.3386260301221938 0  0.3654513888888889 0.5737847222222222 0  0.6929750044954185 0.1362784921584263 0  0.388576102743835 0.411911725237599 0  0.6091269841269842 0.5942460317460317 0  0.875 0.6875 0  0.427278890279516 0.119889445139758 0  0.8544456845238095 0.5213913690476191 0  0.125 0 0  0 0.125 0  1 0.875 0  0.875 1 0  0.1280008648150532 0.4769292340226777 0  0.2695382451711197 0.3321750950221553 0  0.7031567235715964 0.7447810921428012 0  0.625 0 0  0.375 0 0  0.125 1 0  0.875 0 0  0 0.375 0  0 0.625 0  1 0.375 0  0.375 1 0  1 0.125 0  0 0.875 0  0.625 1 0  1 0.625 0  0.2979288363930608 0.1201429454643536 0  0.410919540229885 0.7484605911330049 0  0.5325041980395562 0.878905151526474 0  0.4831670727569156 0.6331060043826487 0  0.1735997378973042 0.7204747378973043 0  0.2534919507575758 0.5772372159090909 0  0.2633928571428572 0.8876488095238095 0  0.8199404761904761 0.2730654761904762 0  0.75830270586982 0.3919383189517417 0  0.5750282248382511 0.4237522353023667 0  0.6008360210023379 0.2794828358598495 0  0.08163442644334186 0.6821295860397322 0  0.08333333333333333 0.1875 0  0.2028380815996574 0.08844602719988583 0  0.2766521142611967 0.2325436572164097 0  0.90625 0.78125 0  0.890625 0.890625 0  0.7545696325008384 0.8973565441669461 0  0.5625 0.08086590340834317 0  0.09077380952380953 0.09077380952380952 0  0.4610923478694773 0.209034015149656 0  0.7542527598351648 0.5248380520595106 0  0.6459235536037465 0.3619913988405765 0  0.7560381768882634 0.20506142233852 0  0.07073252688172042 0.8125 0  0.0924753097241701 0.9078102849914793 0  0.9292674731182795 0.1875 0  0.9075246902758297 0.09218971500852073 0  0.8125 0.07073252688172045 0  0.2400955776842301 0.7869705776842302 0  0.9121050213379069 0.2781978201831695 0  0.7916878157143976 0.7239689078571988 0  0.9345238095238094 0.4375 0  0.4375 0.9345238095238095 0  0.3725616989755203 0.6651895248862173 0  0.06536271996350887 0.5625 0  0.9348362560379583 0.5625 0  0.456646798987055 0.8277247094351965 0  0.1875 0.9355758238725954 0  0.6169761231634859 0.6939779188977889 0  0.6226854751147515 0.7827911461419014 0  0.3305695598137626 0.7901697871282585 0  0.5865305325818898 0.5101085479043448 0  0.6622701297028378 0.2177663989757395 0  0.1354166666666667 0.2591702279202279 0  0 0.3125 0  0.2094429575680048 0.3936361846162499 0  0.836666296419157 0.607917407161686 0  0.6875 1 0  0.214261555450504 0.6492551722020035 0  0 0.4375 0  0.07731537126068377 0.40625 0  0.3427725432967068 0.4879566233699599 0  0.3550792513951871 0.3331953632609953 0  0.4462473953896857 0.2887834789342508 0  0.4747801464819794 0.417386052030127 0  0.8229836475148948 0.4443292349237342 0  0.7322605135514757 0.8199240278289671 0  0.6756431877205955 0.5468989748126787 0  0.1968419507215863 0.5194573482612496 0  0.3285590277777778 0.9345238095238095 0  0.8125 1 0  0.4198917601920009 0.5134893045331258 0  0.5232405503206691 0.2595791787880157 0  1 0.9375 0  0.1987510870015086 0.3025185951894431 0  0.5625 1 0  0.6005390654136388 0.9228110509230952 0  0.6411254848194414 0.07704872765442942 0  0.3357233162523242 0.1855113224530532 0  0.6730653396610877 0.6393887462324165 0  0.310966987234063 0.6240019765311626 0  0.7368737836204349 0.07457755202327881 0  0.6192316414418171 0.1485238406378594 0  0.5432429670607106 0.678552703844006 0  0.4754371679695679 0.7103946803120881 0  0.07501324890749672 0.3043839897335739 0  0.5358146975860403 0.5688321463205916 0  0.3115271739500156 0.3982137365971444 0  0.3625191397122174 0.0767854603650549 0  0.5024029442563831 0.1264128223758444 0  0.4375 0 0  0.4699946908887376 0.06379961173775725 0  0.9375 0.71875 0  0.9272105898044465 0.635671179608893 0  0.9375 1 0  0.6690971819568612 0.9331530898202766 0  0.1073454944778885 0.7499206387638554 0  0.8699082999280406 0.2232403652524313 0  0.5773118091863964 0.3548027349159383 0  0.1354166666666667 0.1428571428571428 0  0.3125 0 0  0.8241684193077341 0.9257452995055244 0  0.4352314948354036 0.3586940847489378 0  0.4351301473778832 0.5819726043539077 0  0.8073232928518163 0.3419398170341962 0  0.7775949246947366 0.1298519409204575 0  0.6875 0 0  0.7413513991851041 0.457933324954483 0  0.939453125 0.841796875 0  0.5630355154606987 0.8171875156478349 0  0.9345238095238095 0.3461466592368577 0  0.9375 0 0  1 0.0625 0  0.0625 1 0  0 0.9375 0  0.06552178593177167 0.4969053669623468 0  0.1424866619031703 0.4130277709291224 0  0.1275287182444726 0.5422946908002588 0  0.2637686595586339 0.06413888464529549 0  0.2524263535491086 0.1697437503243817 0  0.7367218397988525 0.6888573970660841 0  0.0625 0 0  0 0.0625 0  0.8463594539285995 0.7578283617857982 0  0.3128751192101563 0.2851997374369947 0  0.4015281788351144 0.1806421385113692 0  0.1910251795116588 0.4553332197174453 0  0.287797471442006 0.5222621440543902 0  0.3962628745986055 0.8097380085535307 0  0.3505895299554843 0.7304878890838692 0  0.5019151500495276 0.9356042615328103 0  0.9374389419410134 0.4999931039076005 0  0.3125 1 0  0.1875 1 0  1 0.5625 0  0.4375 1 0  1 0.3125 0  1 0.4375 0  0.8125 0 0  1 0.1875 0  0.5625 0 0  0.1875 0 0  0 0.1875 0  0 0.5625 0  0 0.6875 0  0 0.8125 0  1 0.6875 0  1 0.8125 0  0.8021696218581627 0.6612893947866073 0  0.06154922295426143 0.6239401126946708 0  0.9359375 0.9359375 0  0.4666158024849896 0.7691515918155014 0  0.2318201265217025 0.7064974250277525 0  0.1565954253579966 0.6635489312486841 0  0.1598132503680848 0.7787147500325552 0  0.3146529991605639 0.8510876378205265 0  0.1461873209418733 0.05982804528877814 0  0.06109554988524315 0.2446551776247686 0  0.8054950308560754 0.5564226538848541 0  0.470541749491976 0.8853316336952531 0  0.6948472567465137 0.4042308563372457 0  0.8802828472348889 0.4658893256343853 0  0.6788075634946739 0.7974194205806069 0  0.2155048659603867 0.2428201584940968 0  0.8131223143423806 0.2132171049028394 0  0.4330798005432235 0.6671274900735726 0  0.6015279126162613 0.2187368078743274 0  0.8061636571464289 0.8703766630361714 0  0.7008230445061776 0.3478568388444072 0  0.8638466246958771 0.3147095987735538 0  0.204801534004265 0.8789209409594009 0  0.2449006736431132 0.9424182882803838 0  0.7611268409371427 0.2643056884799992 0  0.7552800864046191 0.7678006649959446 0  0.5983639638906616 0.864113435029236 0  0.1956559506814437 0.577281203577426 0  0.3527670268164207 0.1320469097565204 0  0.7530364577483248 0.3262386077083089 0  0.4535919187979363 0.4690107087451527 0  0.8824869791666666 0.8336588541666666 0  0.8814453125 0.9451171875 0  0.5582987942628019 0.622421666543858 0  0.6817532446064828 0.6939001801354731 0  0.3830295138888889 0.9450968952922078 0  0.4140603937012541 0.05211333372716105 0  0.5535864501303013 0.3060591985391672 0  0.6560130086346878 0.2729726562211558 0  0.890203140221684 0.5948314305427268 0  0.7043857725999024 0.593980890020804 0  0.5105843922695152 0.8016828014338627 0  0.05365910753708378 0.7315110031682004 0  0.616904573672261 0.4621186633436136 0  0.5338511646455415 0.387875898899613 0  0.5231769258947843 0.4477682463140762 0  0.650302973237622 0.7370722302085519 0  0.3927483139621257 0.4662414504529014 0  0.8034595960585199 0.4972538342758211 0  0.7738337841682438 0.9496376207663251 0  0.7193737507158268 0.954685447650112 0  0.482525916480686 0.5528257169991676 0  0.2533501157346781 0.2809495420003238 0  0.3118487924482243 0.5702930126570319 0  0.6257598847669529 0.4104163315430518 0  0.1354166666666667 0.1955605158730158 0  0.04166666666666666 0.15625 0  0.3956448985530264 0.6174149462065157 0  0.8102897701818546 0.3938784238208349 0  0.2641154190013625 0.8344469561943118 0  0.642852220770013 0.5068794586563659 0  0.05271458179508221 0.355846947336007 0  0.7021551360070266 0.8921457280225779 0  0.5692125776683765 0.1328512638850284 0  0.5206162811937602 0.04865158770992991 0  0.6001838442201555 0.04540556991297563 0  0.2597716608242787 0.4118346398477178 0  0.4040584599473195 0.3179589136784675 0  0.1480337679295207 0.8941560631483065 0  0.1344356707112281 0.9466251177415842 0  0.7114696411829317 0.4983917389078826 0  0.7585704698442475 0.5751926345944629 0  0.2189131956390871 0.04022068508159698 0  0.2476935455192043 0.1123642267635843 0  0.185995005654517 0.1365524537205238 0  0.6223414373308711 0.643380839165121 0  0.5732602596637543 0.7190051747306219 0  0.268358222364537 0.6586246524467934 0  0.3265879848129173 0.2369791782191225 0  0.1267095595787346 0.7034787238999181 0  0.1115202922226038 0.6421997933884982 0  0.3128688392940203 0.07260997451790079 0  0.550724900485678 0.9253360991633187 0  0.7142608810459105 0.2384904702214873 0  0.7045869185243887 0.1871826897887429 0  0.890625 0.734375 0  0.953125 0.765625 0  0.2111812642821677 0.8286209446459138 0  0.9590293078204457 0.09375 0  0.953431269039847 0.1435719386408004 0  0.04097069217955424 0.90625 0  0.04656873096015299 0.8564280613591996 0  0.1078743037981226 0.8541621766048062 0  0.8921256962018773 0.1458378233951939 0  0.8521576979194619 0.1084496634207678 0  0.8655663982740958 0.05464346096571447 0  0.04005659640905543 0.09375 0  0.1001448316533417 0.04246776244228261 
[...]
<CellData  Scalars="f_8394-4"> 
<DataArray  type="Float64"  Name="f_8394-4"  format="ascii">7.6232632508254627e-01   4.0319578864062106e-01   4.8245886801650884e-01   2.4974603104486420e-01   6.3478848345719385e-01   3.8209683451962856e-01   7.7280340329719077e-01   9.0410057720399417e-01   8.0437483507828744e-01   6.5869093661803702e-01   4.9567713606678299e-01   9.9940109270799016e-01   9.9956073952335700e-01   9.9338575375583327e-01   9.9566075337329074e-01   9.5872861748302185e-01   9.8171095135100916e-01   7.7193746509645134e-01   8.5643598975232527e-01   7.2858498157859519e-01   6.8533091342272989e-01   9.4665992092203377e-01   9.5551050169732288e-01   8.6499008753449513e-01   7.5306960763047670e-01   9.2889043773623814e-01   1.0965326382343230e-01   7.8074015922510698e-01   9.0617648962289310e-01   6.7125381266331019e-01   9.1255020946184673e-01   9.2559888496386566e-01   8.0740350906449232e-01   9.9871471126854550e-01   5.4582006243854886e-01   6.1137799993951703e-01   8.2171374664744579e-01   8.9116467664335597e-01   6.9129388198411734e-01   7.4578259956629112e-01   7.3216178799965903e-01   8.2677149014649332e-01   9.8716104072271638e-01   9.9434014769889723e-01   3.9193600115089505e-01   9.9831983313104822e-01   9.8133068377017318e-01   2.7390949457111280e-01   9.8032828786218873e-01   9.9660095830590423e-01   9.9178672952908054e-01   9.7307473673735867e-01   7.1954139064094935e-01   5.8762133804892647e-01   6.3859364203921876e-01   9.9732356585637605e-01   9.6101036510210358e-01   6.9398729908902490e-01   5.0723417008030469e-01   8.3741771328157821e-01   8.7489631083840180e-01   7.7778705259686842e-01   3.7448667478041653e-01   6.7072939667853149e-01   5.8429483533957982e-01   9.1741428551481075e-01   8.5538558015688415e-01   8.2684017384811981e-01   8.9369040640216479e-01   9.9695663079329366e-01   9.9538718380215541e-01   9.9831685424142480e-01   4.6737194667309007e-01   8.6440121332186426e-01   9.6415242562816494e-01   9.5252974059913043e-01   9.7983111983293170e-01   9.2943922833031223e-01   9.3619371878042879e-01   7.0588825945690314e-01   6.6060090174831998e-01   6.6210424515098754e-01   7.0938137493326081e-01   9.2899004832188892e-01   9.1838137352989679e-01   7.9013693275222241e-01   8.7592339435449862e-01   9.4045308237034597e-01   9.1021908342517999e-01   8.1512605846846264e-01   7.0906119395256040e-01   7.9328733011606511e-01   2.8529231576366337e-01   3.0270262731641179e-01   4.2920631664038555e-01   4.5335678387915052e-01   4.9464894500077355e-01   9.9071484196193360e-01   9.9630735391394887e-01   5.6995801330961016e-01   5.3234303970105668e-01   6.8947314170253049e-01   6.1591506179340383e-01   9.5406880821013473e-01   9.3501917766028708e-01   9.2046481644385347e-01   8.9623057501317671e-01   8.0242668752025659e-01   7.2590692496805265e-01   8.1033002525979159e-01   8.3364594285736326e-01   8.7041060542382398e-01   8.9783005232604562e-01   7.6908344509232296e-01   7.4676664469790022e-01   8.1912222509626109e-01   8.1244377180138050e-01   9.3246910101804492e-01   9.9860896153714584e-01   9.9802337637587069e-01   9.7678692964682012e-01   9.8918534864492214e-01   7.3236753648076414e-01   8.3867605762573627e-01   5.8078572407941464e-01   5.9695048172854481e-01   9.8357605872133202e-01   9.9567823833097124e-01   9.7317497873624659e-01   9.0362535509509601e-01   9.2023804511428520e-01   9.2662358760605568e-01   9.9138188828092488e-01   9.8420101586946263e-01   9.4228330101764091e-01   9.6942209165849358e-01   9.5486845229941963e-01   9.0728749110053819e-01   7.6376957737943374e-01   8.3483650779171137e-01   4.2076756507385832e-01   3.6480710448708786e-01   4.0882274322987949e-01   3.2007741926612798e-01   6.2251026292005462e-01   5.8502253662805437e-01   1.0002232379032665e+00   9.8890989792328998e-01   9.9776472154233198e-01   9.9948640235657826e-01   8.0483322612673136e-01   7.5917069661429237e-01   4.6306294862496394e-01   4.0248613557539686e-01   5.0383145755678937e-01   7.3835575460401315e-01   7.1220580164337710e-01   6.6290211754095807e-01   7.1220098819208721e-01   7.3684466211374411e-01   6.5256023417924691e-01   8.0552391115355626e-01   8.5467409000277572e-01   9.6947903144571723e-01   9.5522010620718534e-01   9.9951824220311125e-01   9.9897392461346757e-01   9.4753523395636607e-01   8.7458264561963228e-01   5.6125352357316294e-01   5.6383849557974930e-01   9.4831591525862269e-01   9.6099955026757233e-01   9.5273960619046494e-01   9.7487799883274073e-01   8.5632811351292071e-01   8.6736301861837095e-01   8.0732242919834363e-01   7.1199640914560269e-01   9.6095298881587243e-01   9.6897334837542204e-01   4.9805911626242788e-01   4.8696866410635520e-01   9.9389369386202076e-01   1.0002075448125085e+00   1.0002271049774187e+00   9.9999184529330132e-01   7.5759860712819949e-01   5.3279609804816053e-01   5.2558504558477004e-01   9.6185213301059769e-01   9.7039364213991708e-01   7.8818175243486011e-01   7.7416461390525648e-01   6.7194465742516685e-01   7.1589438907510605e-01   6.8544840159110954e-01   7.3114543530122966e-01   9.4291111497856794e-01   9.0068576646427845e-01   8.7846305948927428e-01   9.1550185319839561e-01   3.0621147147746208e-01   4.8085907714418202e-01   9.0275710018169653e-01   9.1567354432540138e-01   7.2724722883391113e-01   6.5510678402937350e-01   4.6338583454776572e-01   5.5885779863261387e-01   5.6775895680624033e-01   5.1559741895332012e-01   4.4976918055673137e-01   4.8323011219741280e-01   4.1659599868063968e-01   9.9924982227190906e-01   9.9514584514694671e-01   1.0002264354440795e+00   9.6287384901381079e-01   9.9216177460526089e-01   7.3566041460786735e-01   7.5504595951273812e-01   8.8120929161812755e-01   9.1797803054233396e-01   8.4783000912826467e-01   7.2709966307348495e-01   2.8263315168814307e-01   2.5336909658143431e-01   9.9476547020077821e-01   9.8555138462805436e-01   6.4403781898266177e-01   6.5611332214684792e-01   8.7459613457849672e-01   8.1984080819981109e-01   8.7502394044007825e-01   9.2743655856038709e-01   8.5537678495271452e-01   8.0690422218164481e-01   6.4317596316933667e-01   9.2040123905622195e-01   8.8653027134712814e-01   9.7748281287105410e-01   9.7680405304622497e-01   9.3981414557377818e-01   9.6656509946066071e-01   9.6193705511720995e-01   8.6077106534133918e-01   8.2391943453521077e-01   8.7809615327418267e-01   4.5076863995302358e-01   5.5457157601350671e-01   4.9515491104865383e-01   4.6665448707106838e-01   6.4111000967434317e-01   6.9872450297385813e-01   3.0423721849525587e-01   3.4482597953601751e-01   3.5501013775817736e-01   4.2419495478277325e-01   9.8549429662130206e-01   9.9135010720045103e-01   7.9421242930708361e-02   8.4794989148876815e-02   1.3153470420380453e-01   9.9592397102935903e-01   9.9165967366601826e-01   5.4546310742142545e-01   4.8462340945182952e-01   4.8047694496413335e-01   6.2942740860464685e-01   6.9025528901741839e-01   6.8678493694164588e-01   7.0120821253957577e-01   7.5290565693644484e-01   9.1171351061339689e-01   9.3977178249256665e-01   8.7128872256490719e-01   8.8669182444384942e-01   9.9839323161805482e-01   9.9680752220737490e-01   9.8158476459159061e-01   9.3166611017104517e-01   8.7061687954206657e-01   9.0130229280849083e-01   9.9894372925906028e-01   9.7654193465558103e-01   9.9601538582147697e-01   9.5279314504964230e-01   9.5020639315207811e-01   9.7558698833118118e-01   8.0262142745686593e-01   9.0496549401022730e-01   8.9247749038252988e-01   5.9533631578794244e-01   5.1855948752853498e-01   2.1322525852719276e-01   2.7820000322670457e-01   6.0965863359993411e-01   6.6909735761914224e-01   7.1093285420765162e-01   7.5627124552351221e-01   7.7178976446372571e-01   9.9817058060138963e-01   9.8564733879380562e-01   9.9640988236287031e-01   9.8643616583219063e-01   6.0865346674732812e-01   9.4282053153530354e-01   9.5174933202166900e-01   9.5115534064483309e-01   9.6486487986121205e-01   8.7919659112668780e-01   8.1155997697526117e-01   7.3110358517842922e-01   7.1432832365508803e-01   8.4287346543249686e-01   8.4457912382143963e-01   9.2414721425599478e-01   9.3637570675151871e-01   1.7991168471508229e-01   2.4204369333272963e-01   2.5898028032418008e-01   9.8122460880823004e-01   9.7126708137265083e-01   9.5496406985878435e-01   9.4983955020576649e-01   9.4053410893637102e-01   9.0497902522302776e-01   9.8007631183183141e-01   9.9206638632819222e-01   9.9168090479775239e-01   9.8759161068065981e-01   3.7909444210552662e-01   4.8902529565028674e-01   8.0381595326686539e-01   8.6278714407915558e-01   8.6419964757054868e-01   8.8692776432352671e-01   7.2998074580601191e-01   7.1663120886860066e-01   9.9942399872516197e-01   9.9865588376305769e-01   8.3785532600067203e-01   8.2823275444052047e-01   9.2453097813565277e-01   9.1269667913852659e-01   8.8516852660635248e-01   9.2514883208847654e-01   9.2621901230698445e-01   8.8498566743042195e-01   8.3718901371768317e-01   9.9303908903432547e-01   9.9817730762119028e-01   9.9414494896251371e-01   9.9629070353133564e-01   7.8741132563849936e-01   6.7740617252817725e-01   4.6329967754228052e-01   3.4068558499278628e-01   8.8338834822047108e-01   8.8299304043086257e-01   7.8481759077566504e-01   8.0774787416858385e-01   9.9682121242676303e-01   9.8889686429448875e-01   9.5993930204194955e-01   9.6198210888092639e-01   9.6604407117015645e-01   9.9027033987007096e-01   9.7526561644022813e-01   9.7646378218510843e-01   7.9391059564512623e-01   7.2848267636191799e-01   7.9601975898043076e-01   7.8095530016812953e-01   9.9147564742666661e-01   9.9760080013422303e-01   9.6192873135779422e-01   9.7685806673869813e-01   9.7198956191231789e-01   9.7889214613178421e-01   6.5027752489071655e-01   6.8943738163441703e-01   8.8651836635488857e-01   8.6805003558661964e-01   8.0533420485131668e-01   8.1204475209303517e-01   8.6550482906280457e-01   8.5393021347720133e-01   9.8754199314132951e-01   9.7344418726921100e-01   7.4316317204517612e-01   7.2544856489386589e-01   9.7127512230890178e-01   9.5725141887795362e-01   9.9958220571201117e-01   9.9784305150080133e-01   9.9708483480359300e-01   8.7336493029100837e-01   8.9755121677682015e-01   5.2752847924271085e-01   5.1864012075270349e-01   7.8731000949353347e-01   8.3875378353782071e-01   8.3365960820865481e-01   8.4921899471157514e-01   2.4522602558674811e-01   3.5946190032691211e-01   2.4176684309747637e-01   2.0769708111843471e-01   8.3418422903736300e-01   8.3366507502125486e-01   9.5419947808949424e-01   9.3136199154264410e-01   8.6770847030977105e-01   8.7585030598945235e-01   9.3295668656260455e-01   9.1517175539234996e-01   4.1556694693224233e-01   4.3815379768730045e-01   9.9965781795497943e-01   9.9939901638519968e-01   5.9844901828566444e-01   5.7834554692671003e-01   6.1260836269904217e-01   6.1011468508357025e-01   5.5507440253882478e-01   6.3915848955869015e-01   6.1577275100608531e-01   6.2609935526769012e-01   8.5172824315290896e-01   8.3347198880957518e-01   8.9187766135955382e-01   8.8462251904742328e-01   9.1922374905316262e-01   9.6433514134247500e-01   9.6713339358820216e-01   9.7007459272415053e-01   3.0044066095111965e-01   2.8421523118169489e-01   2.7849042369024146e-01   3.8886481479470986e-01   3.3795516353529553e-01   3.4308025217541377e-01   9.4647577247892523e-01   9.5411643199168095e-01   9.8268556147464481e-01   9.6747543377626799e-01   8.3424326659000292e-01   7.7504964778734142e-01   5.7872896956646380e-01   4.9609732171539195e-01   7.0083428102769230e-01   7.4887016898413350e-01   6.9865516107024206e-01   6.8700546988722899e-01   4.2583628871247126e-01   3.7883624921925058e-01   9.9574142681477229e-01   9.9513103918661439e-01   8.4232381084072705e-01   8.1458525750129385e-01   8.3642370653233633e-01   8.2936256484415105e-01   9.9852883490137023e-01   1.0002290677074746e+00   9.7691325959361486e-01   9.9150913487378600e-01   8.5077208302714613e-01   8.2448927597441002e-01   8.7994318508595637e-01   8.3482970529569334e-01   9.2899910221638371e-01   7.9862151628023137e-01   8.2636375890334812e-01   7.6138990496332315e-01   8.2171784547381488e-01   8.0708822658481016e-01   9.0811079833958264e-01   8.6497124613169318e-01   8.1317602793659605e-01   8.1231400712783242e-01   7.8278428234650288e-01   8.5595054819262506e-01   2.2551778639988809e-01   2.1808155897507303e-01   1.6321353668210997e-01   1.3360745298836768e-01   8.2110430986248639e-01   8.5234582482318355e-01   8.3374801506669594e-01   9.6624086752612182e-01   9.4185587368160095e-01   7.6824474280947375e-01   6.7351366416735015e-01   7.2018564762149195e-01   6.1745141858565267e-01   5.5466763272249531e-01   5.0516138187148174e-01   6.6621480675925238e-01   6.2174847288113122e-01   7.7638415677462758e-01   7.9623073652851306e-01   9.4039506909639636e-01   9.2646428982301865e-01   7.2975650266375225e-01   6.6874156581744126e-01   2.0432422285695881e-01   2.6043242941650008e-01   9.2697188677985876e-01   7.3120778545714904e-01   7.1185827651803724e-01   9.6388435031939079e-01   9.2380280614180521e-01   9.8374245735411092e-01   9.6366891171682867e-01   7.9174451387094935e-01   8.4904567019859745e-01   8.1673304900122412e-01   8.4492196917039564e-01   8.3409552386595887e-01   8.2069244250651430e-01   9.9849449803584645e-01   9.9703886345787551e-01   7.5568868592518534e-01   7.3547126170431354e-01   8.9754465325680932e-01   9.1286677239192204e-01   7.4382695876344695e-01   7.6488154808898590e-01   5.1780011074279486e-01   5.4423034385978697e-01   9.1538019698508377e-01   8.9844004233284025e-01   8.0020393231788656e-01   8.6200256157403743e-01   8.7380487146710939e-01   9.3680080445165181e-01   3.5713702780018525e-01   3.7479583819668089e-01   9.7108398621804037e-01   9.6961822853916668e-01   9.7087664579824251e-01   9.5442919314347552e-01   4.8412591637694835e-01   5.2926769453906297e-01   9.8377886841695539e-01   9.7993295773087885e-01   3.5456292802353095e-01   2.9907422380846321e-01   6.2964699644761568e-01   6.5415900372209246e-01   6.4532047108958857e-01   6.9125124700150087e-01   9.9834437322946268e-01   1.0001056496876013e+00   1.0002021659501732e+00   9.9776492603828626e-01   9.7658515543740765e-01   9.7179934256736700e-01   8.1518982701339371e-01   8.1536363805270529e-01   8.7586932301049980e-01   9.1794428852067067e-01   9.2152950696995684e-01   9.2006414575732587e-01   9.8684626014927612e-01   6.3140651934857406e-01   5.9433318204462604e-01   4.9788337097896590e-01   5.7462305155318549e-01   9.9999941399162573e-01   9.9150293247754939e-01   9.9475968804076809e-01   6.9159743575804322e-01   7.2048688153861129e-01   6.2546036494966539e-01   6.1322517751286942e-01   8.3336430434655440e-01   8.6085515830984793e-01   9.9986543483941681e-01   1.0002215845802020e+00   6.9336160700557814e-01   6.8529421423010606e-01   1.0001291881289585e+00   9.9745424985874531e-01   9.9548452209144944e-01   9.9773975800096182e-01   8.7972889484414518e-01   8.6954155369820429e-01   9.5359081049309735e-01   9.5510594436240370e-01   8.1719588558287981e-01   8.0291699686227447e-01   3.2799817359307937e-01   3.9543092241844346e-01   3.2802458810074281e-01   3.4503065448428627e-01   4.8989272190594563e-01   4.5200029593912627e-01   6.6510225186124450e-01   4.7043076719874904e-01   9.9753818204227995e-01   9.9608759565619875e-01   9.9396932993246911e-01   9.8051601649468123e-01   9.9965657800515484e-01   9.8357918338540795e-01   9.7696433020728479e-01   9.9759100339225204e-01   9.9088874810938699e-01   7.0506258737700944e-01   6.7040401495035207e-01   9.6853746358216131e-01   9.6592774096053513e-01   1.0001042456637779e+00   1.0001071027055894e+00   8.4989261558196527e-01   8.8550823565044801e-01   5.5144232555946004e-01   5.6904985933423202e-01   9.8029299446202345e-01   9.9250140555060817e-01   9.4636039283905571e-01   9.2383812329771220e-01   7.3950160641341589e-01   7.6528126557701581e-01   1.8403252278592516e-01   2.3566877178198059e-01   7.8119158132240962e-01   7.9202577613672054e-01   9.9843981993111752e-01   5.5170716892374383e-01   5.4751731975919160e-01   6.3998803074738064e-01   5.8450369705317118e-01   6.2710019538635675e-01   6.2247918971673089e-01   6.2249008775447701e-01   6.5250181932735396e-01   8.6390352497277323e-01   9.1800960073397309e-01   9.5160853886141494e-01   9.5133778824878956e-01   9.2168494037042570e-01   9.1715392359667225e-01   8.7617990579078375e-01   8.9200194772963370e-01   9.4834412224827913e-01   9.4916358841359727e-01   8.0748041140736060e-01   8.0455696328217174e-01   4.9205115714830433e-01   4.4224361163170867e-01   6.5240250420728751e-01   6.5340056881358410e-01   6.9863489428606873e-01   6.7589749678213973e-01   7.5050160410936351e-01   7.1170080251593759e-01   9.4991736329482268e-01   9.5677188132225888e-01   4.8349917014680649e-01   4.3886841890895212e-01   6.8286656621406194e-01   6.6659984879596113e-01   9.9768244174998433e-01   9.9596935068067394e-01   9.3165436580365202e-01   9.0569586755488884e-01   9.9728254943190253e-01   1.0000745802174797e+00   1.6717720066628597e-01   2.6144553543442878e-01   4.3988897595098841e-01   9.3158577115764052e-01   9.5499652123409418e-01   9.4996398964299078e-01   9.3330127220504733e-01   8.8309145028516012e-01   9.0889085638366096e-01   9.8042545131361869e-01   9.8231231109687511e-01   9.9740423347003249e-01   7.4548481985218717e-01   7.1702411590912896e-01   4.8790833980625664e-01   4.9944831516492788e-01   8.0170660008766548e-01   8.1987175463775552e-01   8.2909785443007278e-01   7.8034069095688630e-01   7.1349173333499705e-01   6.7133131412836844e-01   4.3470684820044581e-01   4.7124943478068970e-01   9.3171954537601909e-01   9.4512816954804180e-01   4.2975667462061234e-01   4.2246794132581300e-01   7.4049305342926797e-01   7.9591204915250990e-01   6.5269186910260557e-01   6.2452861859751141e-01   9.4136050474611832e-01   9.3245905516156757e-01   4.2391098611540418e-01   3.9393954975282880e-01   8.1587346428138208e-01   8.5016326710312107e-01   7.9297335262076174e-01   7.9766450244181752e-01   9.3192029460226755e-01   9.3726714056112548e-01   7.1139359646833478e-01   7.4064874095351574e-01   6.4296949334102160e-01   6.4086350319464358e-01   9.8823783736691118e-01   9.9331905010047439e-01   9.9996856916065291e-01   1.0001832317253287e+00   6.4351334288038131e-01   5.9913328861675585e-01   6.9859305104708214e-01   6.8518496387984984e-01   8.2980466133732311e-01   8.0460966598377193e-01   9.7853224421847596e-01   9.8884052578143167e-01   9.8282499175359761e-01   9.8453152474300731e-01   9.9988870747433378e-01   1.0001799170966859e+00   9.9825777573825381e-01   9.8721608142560280e-01   2.3788344291975710e-01   2.9446976787238882e-01   8.7367189180605109e-01   8.5813872203884611e-01   8.7701731126838256e-01   8.5885090290654742e-01   9.3358643521172768e-01   9.4285977583505154e-01   9.6349550028808140e-01   9.7544898119581169e-01   6.2220976184267263e-01   5.9091132264975110e-01   9.2374901430401501e-01   8.8921415291797945e-01   5.5804030667537552e-01   5.4704683349909700e-01   3.6110191755716081e-01   2.9005484907096729e-01   9.1079030284048301e-01   9.0142221507953713e-01   6.8262680514439400e-01   7.5183179629781216e-01   6.7432791118976820e-01   7.1587182660800963e-01   7.1593154139147408e-01   7.1833651774046881e-01   7.3062747132577299e-01   7.3064281408279319e-01   9.5011746102356909e-01   9.4299043698749885e-01   6.1671769707621982e-01   6.5288798650435176e-01   9.7025661383498374e-01   9.7108793113182834e-01   7.4403477835708809e-01   7.6598129231439371e-01   4.6730430395220407e-01   5.1939231553209353e-01   8.0772159630093465e-01   7.9733529169044881e-01   9.3073670708745160e-01   9.3733893947124314e-01   5.1565650038053801e-01   4.5277111369418882e-01   9.9064394961997326e-01   9.8914849193708054e-01   8.0078561172271090e-01   7.7573046119046529e-01   9.8967737763833352e-01   9.9099716994062514e-01   9.5525503742865525e-01   9.5156355409482563e-01   9.8550620433786629e-01   9.8730321682364541e-01   4.5651920085221637e-01   4.3378301438134376e-01   8.2879067629549574e-01   8.1971112819196945e-01   3.5496518902450225e-01   7.1634788428673557e-01   7.489753