<?xml version="1.0"?>
<VTKFile type="UnstructuredGrid"  version="0.1"  >
<UnstructuredGrid>
<Piece  NumberOfPoints="1385" NumberOfCells="2640">
<Points>
<DataArray  type="Float64"  NumberOfComponents="3"  format="ascii">0 0 0  1 0 0  1 1 0  0 1 0  0.5 0 0  1 0.5 0  0.5 1 0  0 0.5 0  0.5 0.5 0  0 0.25 0  0.25 0 0  0.25 1 0  0 0.75 0  1 0.25 0  0.75 0 0  1 0.75 0  0.75 1 0  0.7083333333333333 0.2916666666666667 0  0.2916666666666666 0.7083333333333334 0  0.375 0.25 0  0.75 0.625 0  0.2569444444444444 0.4652777777777778 0  0.5366379310344828 0.7535919540229885 0  0.1875 0.1875 0  0.8125 0.8125 0  0.869047619047619 0.375 0  0.1450441919191919 0.6052714646464646 0  0.375 0.8690476190476191 0  0.5526960784313725 0.1825980392156862 0  0.8385416666666666 0.1614583333333334 0  0.1614583333333333 0.8385416666666667 0  0.6736111111111112 0.4652777777777778 0  0.1367521367521368 0.3477564102564102 0  0.6570970491253563 0.8648656830417855 0  0.5102479397556124 0.3386260301221938 0  0.3654513888888889 0.5737847222222222 0  0.6929750044954185 0.1362784921584263 0  0.388576102743835 0.411911725237599 0  0.6091269841269842 0.5942460317460317 0  0.875 0.6875 0  0.427278890279516 0.119889445139758 0  0.8544456845238095 0.5213913690476191 0  0.125 0 0  0 0.125 0  1 0.875 0  0.875 1 0  0.1280008648150532 0.4769292340226777 0  0.2695382451711197 0.3321750950221553 0  0.7031567235715964 0.7447810921428012 0  0.625 0 0  0.375 0 0  0.125 1 0  0.875 0 0  0 0.375 0  0 0.625 0  1 0.375 0  0.375 1 0  1 0.125 0  0 0.875 0  0.625 1 0  1 0.625 0  0.2979288363930608 0.1201429454643536 0  0.410919540229885 0.7484605911330049 0  0.5325041980395562 0.878905151526474 0  0.4831670727569156 0.6331060043826487 0  0.1735997378973042 0.7204747378973043 0  0.2534919507575758 0.5772372159090909 0  0.2633928571428572 0.8876488095238095 0  0.8199404761904761 0.2730654761904762 0  0.75830270586982 0.3919383189517417 0  0.5750282248382511 0.4237522353023667 0  0.6008360210023379 0.2794828358598495 0  0.08163442644334186 0.6821295860397322 0  0.08333333333333333 0.1875 0  0.2028380815996574 0.08844602719988583 0  0.2766521142611967 0.2325436572164097 0  0.90625 0.78125 0  0.890625 0.890625 0  0.7545696325008384 0.8973565441669461 0  0.5625 0.08086590340834317 0  0.09077380952380953 0.09077380952380952 0  0.4610923478694773 0.209034015149656 0  0.7542527598351648 0.5248380520595106 0  0.6459235536037465 0.3619913988405765 0  0.7560381768882634 0.20506142233852 0  0.07073252688172042 0.8125 0  0.0924753097241701 0.9078102849914793 0  0.9292674731182795 0.1875 0  0.9075246902758297 0.09218971500852073 0  0.8125 0.07073252688172045 0  0.2400955776842301 0.7869705776842302 0  0.9121050213379069 0.2781978201831695 0  0.7916878157143976 0.7239689078571988 0  0.9345238095238094 0.4375 0  0.4375 0.9345238095238095 0  0.3725616989755203 0.6651895248862173 0  0.06536271996350887 0.5625 0  0.9348362560379583 0.5625 0  0.456646798987055 0.8277247094351965 0  0.1875 0.9355758238725954 0  0.6169761231634859 0.6939779188977889 0  0.6226854751147515 0.7827911461419014 0  0.3305695598137626 0.7901697871282585 0  0.5865305325818898 0.5101085479043448 0  0.6622701297028378 0.2177663989757395 0  0.1354166666666667 0.2591702279202279 0  0 0.3125 0  0.2094429575680048 0.3936361846162499 0  0.836666296419157 0.607917407161686 0  0.6875 1 0  0.214261555450504 0.6492551722020035 0  0 0.4375 0  0.07731537126068377 0.40625 0  0.3427725432967068 0.4879566233699599 0  0.3550792513951871 0.3331953632609953 0  0.4462473953896857 0.2887834789342508 0  0.4747801464819794 0.417386052030127 0  0.8229836475148948 0.4443292349237342 0  0.7322605135514757 0.8199240278289671 0  0.6756431877205955 0.5468989748126787 0  0.1968419507215863 0.5194573482612496 0  0.3285590277777778 0.9345238095238095 0  0.8125 1 0  0.4198917601920009 0.5134893045331258 0  0.5232405503206691 0.2595791787880157 0  1 0.9375 0  0.1987510870015086 0.3025185951894431 0  0.5625 1 0  0.6005390654136388 0.9228110509230952 0  0.6411254848194414 0.07704872765442942 0  0.3357233162523242 0.1855113224530532 0  0.6730653396610877 0.6393887462324165 0  0.310966987234063 0.6240019765311626 0  0.7368737836204349 0.07457755202327881 0  0.6192316414418171 0.1485238406378594 0  0.5432429670607106 0.678552703844006 0  0.4754371679695679 0.7103946803120881 0  0.07501324890749672 0.3043839897335739 0  0.5358146975860403 0.5688321463205916 0  0.3115271739500156 0.3982137365971444 0  0.3625191397122174 0.0767854603650549 0  0.5024029442563831 0.1264128223758444 0  0.4375 0 0  0.4699946908887376 0.06379961173775725 0  0.9375 0.71875 0  0.9272105898044465 0.635671179608893 0  0.9375 1 0  0.6690971819568612 0.9331530898202766 0  0.1073454944778885 0.7499206387638554 0  0.8699082999280406 0.2232403652524313 0  0.5773118091863964 0.3548027349159383 0  0.1354166666666667 0.1428571428571428 0  0.3125 0 0  0.8241684193077341 0.9257452995055244 0  0.4352314948354036 0.3586940847489378 0  0.4351301473778832 0.5819726043539077 0  0.8073232928518163 0.3419398170341962 0  0.7775949246947366 0.1298519409204575 0  0.6875 0 0  0.7413513991851041 0.457933324954483 0  0.939453125 0.841796875 0  0.5630355154606987 0.8171875156478349 0  0.9345238095238095 0.3461466592368577 0  0.9375 0 0  1 0.0625 0  0.0625 1 0  0 0.9375 0  0.06552178593177167 0.4969053669623468 0  0.1424866619031703 0.4130277709291224 0  0.1275287182444726 0.5422946908002588 0  0.2637686595586339 0.06413888464529549 0  0.2524263535491086 0.1697437503243817 0  0.7367218397988525 0.6888573970660841 0  0.0625 0 0  0 0.0625 0  0.8463594539285995 0.7578283617857982 0  0.3128751192101563 0.2851997374369947 0  0.4015281788351144 0.1806421385113692 0  0.1910251795116588 0.4553332197174453 0  0.287797471442006 0.5222621440543902 0  0.3962628745986055 0.8097380085535307 0  0.3505895299554843 0.7304878890838692 0  0.5019151500495276 0.9356042615328103 0  0.9374389419410134 0.4999931039076005 0  0.3125 1 0  0.1875 1 0  1 0.5625 0  0.4375 1 0  1 0.3125 0  1 0.4375 0  0.8125 0 0  1 0.1875 0  0.5625 0 0  0.1875 0 0  0 0.1875 0  0 0.5625 0  0 0.6875 0  0 0.8125 0  1 0.6875 0  1 0.8125 0  0.8021696218581627 0.6612893947866073 0  0.06154922295426143 0.6239401126946708 0  0.9359375 0.9359375 0  0.4666158024849896 0.7691515918155014 0  0.2318201265217025 0.7064974250277525 0  0.1565954253579966 0.6635489312486841 0  0.1598132503680848 0.7787147500325552 0  0.3146529991605639 0.8510876378205265 0  0.1461873209418733 0.05982804528877814 0  0.06109554988524315 0.2446551776247686 0  0.8054950308560754 0.5564226538848541 0  0.470541749491976 0.8853316336952531 0  0.6948472567465137 0.4042308563372457 0  0.8802828472348889 0.4658893256343853 0  0.6788075634946739 0.7974194205806069 0  0.2155048659603867 0.2428201584940968 0  0.8131223143423806 0.2132171049028394 0  0.4330798005432235 0.6671274900735726 0  0.6015279126162613 0.2187368078743274 0  0.8061636571464289 0.8703766630361714 0  0.7008230445061776 0.3478568388444072 0  0.8638466246958771 0.3147095987735538 0  0.204801534004265 0.8789209409594009 0  0.2449006736431132 0.9424182882803838 0  0.7611268409371427 0.2643056884799992 0  0.7552800864046191 0.7678006649959446 0  0.5983639638906616 0.864113435029236 0  0.1956559506814437 0.577281203577426 0  0.3527670268164207 0.1320469097565204 0  0.7530364577483248 0.3262386077083089 0  0.4535919187979363 0.4690107087451527 0  0.8824869791666666 0.8336588541666666 0  0.8814453125 0.9451171875 0  0.5582987942628019 0.622421666543858 0  0.6817532446064828 0.6939001801354731 0  0.3830295138888889 0.9450968952922078 0  0.4140603937012541 0.05211333372716105 0  0.5535864501303013 0.3060591985391672 0  0.6560130086346878 0.2729726562211558 0  0.890203140221684 0.5948314305427268 0  0.7043857725999024 0.593980890020804 0  0.5105843922695152 0.8016828014338627 0  0.05365910753708378 0.7315110031682004 0  0.616904573672261 0.4621186633436136 0  0.5338511646455415 0.387875898899613 0  0.5231769258947843 0.4477682463140762 0  0.650302973237622 0.7370722302085519 0  0.3927483139621257 0.4662414504529014 0  0.8034595960585199 0.4972538342758211 0  0.7738337841682438 0.9496376207663251 0  0.7193737507158268 0.954685447650112 0  0.482525916480686 0.5528257169991676 0  0.2533501157346781 0.2809495420003238 0  0.3118487924482243 0.5702930126570319 0  0.6257598847669529 0.4104163315430518 0  0.1354166666666667 0.1955605158730158 0  0.04166666666666666 0.15625 0  0.3956448985530264 0.6174149462065157 0  0.8102897701818546 0.3938784238208349 0  0.2641154190013625 0.8344469561943118 0  0.642852220770013 0.5068794586563659 0  0.05271458179508221 0.355846947336007 0  0.7021551360070266 0.8921457280225779 0  0.5692125776683765 0.1328512638850284 0  0.5206162811937602 0.04865158770992991 0  0.6001838442201555 0.04540556991297563 0  0.2597716608242787 0.4118346398477178 0  0.4040584599473195 0.3179589136784675 0  0.1480337679295207 0.8941560631483065 0  0.1344356707112281 0.9466251177415842 0  0.7114696411829317 0.4983917389078826 0  0.7585704698442475 0.5751926345944629 0  0.2189131956390871 0.04022068508159698 0  0.2476935455192043 0.1123642267635843 0  0.185995005654517 0.1365524537205238 0  0.6223414373308711 0.643380839165121 0  0.5732602596637543 0.7190051747306219 0  0.268358222364537 0.6586246524467934 0  0.3265879848129173 0.2369791782191225 0  0.1267095595787346 0.7034787238999181 0  0.1115202922226038 0.6421997933884982 0  0.3128688392940203 0.07260997451790079 0  0.550724900485678 0.9253360991633187 0  0.7142608810459105 0.2384904702214873 0  0.7045869185243887 0.1871826897887429 0  0.890625 0.734375 0  0.953125 0.765625 0  0.2111812642821677 0.8286209446459138 0  0.9590293078204457 0.09375 0  0.953431269039847 0.1435719386408004 0  0.04097069217955424 0.90625 0  0.04656873096015299 0.8564280613591996 0  0.1078743037981226 0.8541621766048062 0  0.8921256962018773 0.1458378233951939 0  0.8521576979194619 0.1084496634207678 0  0.8655663982740958 0.05464346096571447 0  0.04005659640905543 0.09375 0  0.1001448316533417 0.04246776244228261 
[...]
<CellData  Scalars="f_8394-4"> 
<DataArray  type="Float64"  Name="f_8394-4"  format="ascii">7.6285018409473671e-01   4.0347917690490925e-01   4.8278665424732448e-01   2.4990006449407487e-01   6.3525681244694476e-01   3.8237498050589019e-01   7.7332403520722603e-01   9.0472742223239078e-01   8.0492949962449534e-01   6.5917057493798215e-01   4.9599178348723533e-01   1.0000858811882756e+00   1.0002545445929445e+00   9.9407266139541628e-01   9.9635642395345470e-01   9.5939756704045354e-01   9.8238784682899405e-01   7.7247903859417599e-01   8.5703447072228423e-01   7.2910635700860404e-01   6.8580397913321045e-01   9.4731003071098763e-01   9.5618229442917624e-01   8.6560166151791373e-01   7.5356191221386892e-01   9.2953172608760148e-01   1.0965291487850916e-01   7.8128078404146017e-01   9.0679814930797165e-01   6.7173224278448695e-01   9.1316936042156660e-01   9.2624235492819873e-01   8.0795146318143385e-01   9.9941169411607944e-01   5.4618636159919887e-01   6.1181334464365966e-01   8.2226954965301779e-01   8.9178820466434683e-01   6.9176219389373195e-01   7.4629323352604426e-01   7.3267362438577022e-01   8.2734022762515547e-01   9.8784703545455377e-01   9.9503308200344331e-01   3.9220716544562828e-01   9.9899028736335205e-01   9.8201179088922264e-01   2.7409973056253073e-01   9.8097822475510821e-01   9.9729550322983229e-01   9.9247008030002126e-01   9.7374334635416770e-01   7.2004795331776850e-01   5.8800805770990872e-01   6.3903270104064058e-01   9.9801214429033047e-01   9.6168585046071964e-01   6.9444712549273846e-01   5.0757475807658248e-01   8.3798893371994998e-01   8.7550550592505416e-01   7.7830502493922782e-01   3.7472068208468295e-01   6.7119726817312775e-01   5.8465126921383925e-01   9.1804488807462059e-01   8.5597613124448757e-01   8.2740872659321585e-01   8.9431393199974119e-01   9.9763487081390201e-01   9.9607227274505628e-01   9.9900014273059989e-01   4.6770902146715138e-01   8.6499652946489158e-01   9.6483164441137748e-01   9.5319303911726783e-01   9.8051138896727053e-01   9.3007994483503009e-01   9.3685445473426021e-01   7.0638943325938264e-01   6.6106994574039180e-01   6.6255696262339736e-01   7.0988384849573727e-01   9.2964835751789487e-01   9.1902160921610132e-01   7.9067325717676507e-01   8.7652548770837102e-01   9.4110281320870026e-01   9.1084170276514831e-01   8.1569465243399764e-01   7.0954959376689730e-01   7.9383547316568848e-01   2.8546590357949142e-01   3.0294228064126749e-01   4.2952742397871979e-01   4.5365105880442530e-01   4.9498695380511193e-01   9.9138263891023126e-01   9.9700145753842406e-01   5.7036924048953563e-01   5.3268603827178185e-01   6.8994472075268465e-01   6.1634195867720798e-01   9.5473368143421200e-01   9.3566366048736660e-01   9.2110577654580794e-01   8.9684104183216651e-01   8.0297703136846665e-01   7.2638864643307877e-01   8.1088559030870055e-01   8.3422306878022179e-01   8.7102013102178610e-01   8.9844805728680799e-01   7.6963125034318036e-01   7.4727764397247165e-01   8.1966854539837830e-01   8.1299785195213237e-01   9.3310292753494306e-01   9.9930815882282464e-01   9.9871411330587978e-01   9.7746748641615566e-01   9.8986797241930813e-01   7.3286285838775767e-01   8.3924313566561470e-01   5.8117781484581998e-01   5.9737033451181365e-01   9.8426057087047947e-01   9.9636786480749817e-01   9.7383808726318610e-01   9.0424889810564280e-01   9.2087772994816020e-01   9.2726903048457365e-01   9.9206100302634215e-01   9.8488314097309038e-01   9.4292205129826934e-01   9.7009000996045314e-01   9.5553203572023193e-01   9.0792149840923053e-01   7.6428994644946424e-01   8.3542987394458390e-01   4.2107987778871481e-01   3.6502962700212332e-01   4.0910087598548678e-01   3.2025568645058211e-01   6.2292803149563636e-01   5.8544384766359647e-01   1.0009143769264046e+00   9.8960170913058865e-01   9.9846629693750732e-01   1.0001773680635624e+00   8.0538285678232324e-01   7.5969546105021457e-01   4.6335705250835596e-01   4.0276547460506024e-01   5.0416393577743956e-01   7.3886438719335534e-01   7.1269353971698191e-01   6.6337680727442727e-01   7.1267697682030728e-01   7.3734470722769430e-01   6.5300121223709851e-01   8.0607556924983126e-01   8.5527228887197593e-01   9.7015684390093027e-01   9.5587526344797036e-01   1.0002149584826159e+00   9.9967389163127274e-01   9.4819662810117133e-01   8.7518905476001252e-01   5.6163084179398215e-01   5.6422122848019796e-01   9.4896393580421978e-01   9.6163290366649701e-01   9.5335693221419471e-01   9.7553381633783165e-01   8.5691847284941469e-01   8.6796277831217405e-01   8.0788001337916926e-01   7.1249378617763770e-01   9.6160235035600417e-01   9.6963892922832695e-01   4.9839295415882762e-01   4.8731901751395212e-01   9.9457495330960810e-01   1.0008836475992560e+00   1.0009167582787757e+00   1.0006710422374003e+00   7.5811546319543255e-01   5.3318084425021484e-01   5.2595003158150133e-01   9.6252498675425602e-01   9.7107200739246413e-01   7.8872475935670550e-01   7.7470390580190784e-01   6.7238404522552786e-01   7.1639640865907506e-01   6.8590898287863411e-01   7.3166956994604881e-01   9.4358189334628340e-01   9.0131901229399947e-01   8.7906514775188238e-01   9.1612365127293571e-01   3.0639525137648471e-01   4.8118476212458838e-01   9.0337542686361805e-01   9.1630806404078502e-01   7.2775693399196073e-01   6.5555673191345731e-01   4.6368038122302185e-01   5.5922948366581537e-01   5.6814242250155611e-01   5.1594159235949544e-01   4.5009767508523341e-01   4.8354042146518894e-01   4.1686688542493899e-01   9.9994213144391964e-01   9.9583711741160919e-01   1.0009190626315658e+00   9.6352931146284948e-01   9.9280714290369798e-01   7.3616492800135847e-01   7.5556243014104274e-01   8.8182540893088790e-01   9.1862194260010976e-01   8.4841045701400863e-01   7.2760563998437433e-01   2.8282742329752142e-01   2.5354241139622602e-01   9.9546018626600308e-01   9.8623140487901384e-01   6.4448137379418902e-01   6.5656585398603251e-01   8.7519289086243868e-01   8.2040139135356782e-01   8.7561236622765126e-01   9.2808819529370556e-01   8.5595757881217127e-01   8.0747393479858898e-01   6.4357636096130288e-01   9.2104325264371767e-01   8.8716550110675529e-01   9.7816122687336160e-01   9.7748408504590645e-01   9.4044630691713393e-01   9.6723188663072190e-01   9.6259988100284088e-01   8.6134651134099072e-01   8.2445189691638254e-01   8.7867972758251611e-01   4.5105668482177003e-01   5.5496739739731837e-01   4.9546615147246686e-01   4.6699874985314110e-01   6.4155190559340447e-01   6.9920455677146431e-01   3.0438525101610669e-01   3.4502698520152292e-01   3.5524751746456934e-01   4.2445364922541412e-01   9.8617992120777198e-01   9.9204208082147016e-01   7.9414194828658358e-02   8.4808264241129749e-02   1.3156970617311331e-01   9.9661553433527894e-01   9.9234986888817722e-01   5.4584051097084318e-01   4.8495848792966467e-01   4.8079907967243879e-01   6.2985163806619460e-01   6.9072277358174106e-01   6.8724827978339831e-01   7.0168761924557632e-01   7.5339271370657668e-01   9.1234138016867061e-01   9.4042346652602282e-01   8.7190571417869700e-01   8.8731271868480965e-01   9.9906129122618781e-01   9.9745899447522823e-01   9.8225504666885599e-01   9.3231618558236951e-01   8.7121957032775077e-01   9.0191583404591247e-01   9.9959430229469948e-01   9.7722554785848259e-01   9.9668593528575389e-01   9.5340269733949812e-01   9.5082654736951844e-01   9.7623031720676046e-01   8.0314912091062274e-01   9.0559758564319504e-01   8.9307968905348656e-01   5.9576828585102282e-01   5.1891049768901332e-01   2.1334822855711758e-01   2.7838356742005160e-01   6.1004219525715864e-01   6.6954870324202398e-01   7.1141561636389228e-01   7.5678858567439788e-01   7.7231326099181508e-01   9.9885196054486713e-01   9.8630006445483731e-01   9.9709959414396243e-01   9.8711225254449153e-01   6.0902681815604676e-01   9.4341339074743014e-01   9.5236069574412985e-01   9.5179984444494292e-01   9.6554358635528570e-01   8.7980946129386450e-01   8.1211934738633385e-01   7.3162426272314807e-01   7.1483050241875634e-01   8.4346849210952057e-01   8.4515838960863887e-01   9.2477764064670887e-01   9.3702660917412439e-01   1.8000182471194967e-01   2.4218297866201655e-01   2.5913867870189172e-01   9.8191082187095780e-01   9.7193899045220900e-01   9.5562908229460852e-01   9.5048197848240723e-01   9.4118135097214617e-01   9.0561266712034660e-01   9.8075125194545199e-01   9.9275732143067397e-01   9.9237741179724914e-01   9.8828360048900565e-01   3.7933447458243608e-01   4.8936568319531359e-01   8.0436358463073920e-01   8.6338812947610211e-01   8.6478876202067256e-01   8.8753661027095054e-01   7.3048376772099699e-01   7.1713182862340130e-01   1.0001222743098062e+00   9.9935559355627135e-01   8.3842436962424516e-01   8.2881380466626609e-01   9.2516248128346390e-01   9.1333444565932842e-01   8.8577349818074269e-01   9.2577565357580194e-01   9.2684159224518925e-01   8.8559729834057499e-01   8.3777065122516337e-01   9.9371587133737715e-01   9.9886702419623541e-01   9.9481813519107076e-01   9.9697603211847441e-01   7.8797477807364058e-01   6.7786315312111811e-01   4.6362699040517780e-01   3.4091628967761961e-01   8.8399778671296214e-01   8.8358388345354144e-01   7.8537148282989799e-01   8.0831041343645416e-01   9.9750768946410617e-01   9.8956533817548253e-01   9.6054923627609301e-01   9.6264995779385520e-01   9.6671894990357998e-01   9.9096177022713716e-01   9.7593300506176284e-01   9.7710057152224028e-01   7.9446161967572559e-01   7.2897977963517180e-01   7.9656552859658014e-01   7.8149563027022373e-01   9.9216092619223473e-01   9.9826020141312966e-01   9.6260015113719122e-01   9.7754385834378543e-01   9.7266441885510146e-01   9.7957647273051451e-01   6.5071449266054782e-01   6.8990913576239288e-01   8.8713634580912148e-01   8.6864428286231443e-01   8.0589301127013835e-01   8.1260140042519446e-01   8.6610480990380689e-01   8.5452451589232614e-01   9.8823058266027708e-01   9.7411564667491546e-01   7.4368722971381496e-01   7.2595343827373737e-01   9.7193656533550088e-01   9.5791505326505877e-01   1.0002711648869598e+00   9.9854032553347249e-01   9.9776656917059237e-01   8.7396588135832809e-01   8.9816735633797451e-01   5.2788274263325619e-01   5.1899533876573667e-01   7.8786461394937191e-01   8.3932484862918344e-01   8.3424212947595644e-01   8.4980361360850876e-01   2.4536786912668965e-01   3.5972871847735194e-01   2.4189523872084762e-01   2.0780501323894032e-01   8.3474738498169265e-01   8.3424752603559860e-01   9.5484975093230662e-01   9.3200672882234159e-01   8.6832521827714282e-01   8.7644523187635603e-01   9.3361136417332313e-01   9.1580116722786686e-01   4.1581220445995909e-01   4.3842727069191584e-01   1.0003464370112061e+00   1.0000929834300565e+00   5.9885186646243682e-01   5.7873242976186878e-01   6.1302642870131774e-01   6.1051108079184835e-01   5.5547556594209868e-01   6.3960893758078230e-01   6.1620212028537158e-01   6.2652114547651916e-01   8.5232738421129695e-01   8.3403315648172238e-01   8.9247307613348448e-01   8.8523701712754987e-01   9.1986085676639506e-01   9.6500065256064549e-01   9.6781029024978815e-01   9.7076097714858900e-01   3.0064166714768581e-01   2.8441737152859409e-01   2.7867057077296270e-01   3.8914108268305736e-01   3.3816913386679887e-01   3.4332929515951505e-01   9.4712735773298273e-01   9.5477578864830370e-01   9.8338295252766750e-01   9.6815291376560186e-01   8.3481932017472782e-01   7.7560230932614527e-01   5.7910480421911215e-01   4.9643950269699033e-01   7.0132774929086994e-01   7.4939464039877368e-01   6.9915361088088113e-01   6.8747949229600436e-01   4.2611479288411380e-01   3.7910620588297894e-01   9.9643892573548520e-01   9.9582356473693712e-01   8.4291198840719395e-01   8.1515341589785295e-01   8.3700148886797088e-01   8.2992834681303218e-01   9.9920651334343213e-01   1.0009243864495669e+00   9.7752380876404865e-01   9.9219653441944644e-01   8.5136383685574324e-01   8.2506179055753570e-01   8.8053791715688112e-01   8.3540123796881038e-01   9.2961427033874933e-01   7.9916935497232366e-01   8.2691903408782230e-01   7.6189748018074788e-01   8.2229409794867969e-01   8.0764921024437275e-01   9.0872442059009251e-01   8.6557342014711858e-01   8.1375326678456861e-01   8.1286685857218655e-01   7.8327797713421887e-01   8.5653569205049396e-01   2.2569867104207739e-01   2.1822064072225783e-01   1.6331480566443157e-01   1.3364884709167948e-01   8.2165464503544472e-01   8.5290770862762622e-01   8.3430446301549788e-01   9.6690747277291522e-01   9.4250752851269792e-01   7.6877047518530361e-01   6.7400613859518932e-01   7.2066944815333955e-01   6.1787018519117543e-01   5.5504718739525249e-01   5.0550444474689460e-01   6.6669561443496828e-01   6.2215225379938377e-01   7.7690458214992419e-01   7.9678674699195784e-01   9.4104819888833779e-01   9.2711617815625236e-01   7.3027485615406462e-01   6.6920865746592884e-01   2.0445955532999224e-01   2.6061222715874760e-01   9.2758301707775637e-01   7.3168545740588842e-01   7.1233760883101593e-01   9.6452000756164702e-01   9.2445912805793884e-01   9.8441016159618144e-01   9.6432371336785339e-01   7.9228973558399574e-01   8.4964133395709840e-01   8.1729857039069742e-01   8.4550258657053179e-01   8.3467548819409987e-01   8.2126716030673141e-01   9.9917741573677887e-01   9.9772761576271463e-01   7.5620913783303434e-01   7.3600408878780765e-01   8.9815530557227818e-01   9.1349448220480411e-01   7.4433665584735642e-01   7.6541228905473346e-01   5.1814785823408338e-01   5.4461758287245465e-01   9.1600846135392655e-01   8.9905806388423470e-01   8.0075914211010712e-01   8.6261135641242037e-01   8.7440941677340789e-01   9.3743348128595949e-01   3.5734328023001849e-01   3.7502992289833792e-01   9.7174915636839754e-01   9.7027726199265396e-01   9.7153479176334157e-01   9.5510034634217433e-01   4.8445747794174432e-01   5.2963265297853901e-01   9.8441189141338081e-01   9.8056633756544276e-01   3.5479834397361304e-01   2.9923024260489167e-01   6.3007299966175867e-01   6.5461385437495301e-01   6.4578963374782983e-01   6.9173397935190561e-01   9.9904175573121135e-01   1.0007943219195832e+00   1.0008914936221738e+00   9.9844316723204729e-01   9.7726005098216429e-01   9.7247769144240503e-01   8.1574387692688377e-01   8.1593311323228024e-01   8.7648499917587752e-01   9.1859455099801790e-01   9.2215264395885610e-01   9.2071061784253927e-01   9.8748336537795356e-01   6.3183358332943351e-01   5.9473102808424005e-01   4.9822536256217442e-01   5.7501834813249009e-01   1.0006541223500944e+00   9.9219409223290389e-01   9.9545082498737325e-01   6.9209059727299183e-01   7.2098833285198782e-01   6.2585143408062949e-01   6.1360693201535410e-01   8.3394009912861600e-01   8.6145074332443361e-01   1.0005541834886911e+00   1.0009190756704314e+00   6.9382204401218772e-01   6.8575539498550431e-01   1.0008213919480893e+00   9.9810921255320761e-01   9.9617503661208406e-01   9.9842346645028968e-01   8.8034093445663342e-01   8.7015005373037613e-01   9.5423955137223715e-01   9.5575289449557022e-01   8.1776835660196323e-01   8.0347340893372565e-01   3.2824781656061403e-01   3.9570002743730881e-01   3.2826106199743349e-01   3.4528206664882227e-01   4.9022170406808413e-01   4.5229960585967610e-01   6.6550442449252001e-01   4.7072446313912014e-01   9.9820624453666285e-01   9.9674260018073046e-01   9.9463649383749830e-01   9.8119932271014254e-01   1.0003271972230354e+00   9.8426563035336712e-01   9.7763959236430631e-01   9.9828102727976586e-01   9.9156739266832683e-01   7.0553750027948914e-01   6.7087373602939504e-01   9.6918451071772493e-01   9.6656351181363320e-01   1.0007982137474845e+00   1.0008068215153716e+00   8.5048586568706985e-01   8.8613351031691845e-01   5.5174116891211322e-01   5.6942119680488701e-01   9.8096472600339302e-01   9.9319490862019022e-01   9.4702522134492539e-01   9.2447708167424980e-01   7.4002529045504140e-01   7.6581738320301573e-01   1.8414174365992020e-01   2.3582108268725813e-01   7.8173428594320227e-01   7.9255860115120347e-01   9.9909171519727902e-01   5.5207807940844056e-01   5.4791261447294526e-01   6.4043658316989249e-01   5.8490449328994776e-01   6.2753963876186247e-01   6.2294119190190134e-01   6.2290708632851843e-01   6.5294501071441480e-01   8.6449582231815547e-01   9.1864026428281531e-01   9.5226745968002147e-01   9.5200090656140013e-01   9.2231972358750436e-01   9.1779493078141083e-01   8.7678195283675175e-01   8.9262075288629072e-01   9.4899234386894449e-01   9.4980828848077448e-01   8.0802709943110085e-01   8.0510415474968700e-01   4.9239117808061389e-01   4.4252644305910654e-01   6.5283612595126994e-01   6.5384661279174561e-01   6.9911692020468408e-01   6.7638868443149591e-01   7.5101358128761286e-01   7.1218849659109140e-01   9.5057560933537144e-01   9.5744072270414493e-01   4.8383151975964961e-01   4.3917188294714954e-01   6.8334643916739357e-01   6.6706220676720551e-01   9.9838082477566048e-01   9.9665907095756989e-01   9.3230443317880352e-01   9.0632425529844951e-01   9.9795982521842819e-01   1.0007638329676911e+00   1.6724236463682554e-01   2.6160517637159558e-01   4.4014898563701371e-01   9.3223681158212879e-01   9.5564114438939041e-01   9.5060856036200392e-01   9.3395257195944392e-01   8.8369897635213612e-01   9.0952296395534737e-01   9.8110494850819330e-01   9.8299933967441777e-01   9.9804478594925206e-01   7.4598625086645309e-01   7.1752749345071032e-01   4.8824993455657983e-01   4.9979745059492892e-01   8.0223287194151605e-01   8.2040955334266286e-01   8.2967211899124027e-01   7.8089658181061805e-01   7.1397453651898113e-01   6.7179639558504811e-01   4.3500211344034923e-01   4.7156981896491568e-01   9.3235384354833151e-01   9.4578542639093699e-01   4.3005273949650280e-01   4.2276334516056663e-01   7.4099735582737047e-01   7.9645189257743010e-01   6.5316064419400455e-01   6.2493747159898638e-01   9.4197683793228204e-01   9.3306509430423745e-01   4.2421451282133249e-01   3.9421657721020914e-01   8.1643624707325624e-01   8.5075328135485373e-01   7.9351671894092679e-01   7.9821194435287746e-01   9.3255956673725593e-01   9.3791837899401231e-01   7.1185781303914941e-01   7.4116344569536341e-01   6.4339143265905130e-01   6.4129740535007040e-01   9.8892229290909528e-01   9.9400634683709743e-01   1.0006578464353864e+00   1.0008695289208476e+00   6.4393982878316558e-01   5.9953896706310228e-01   6.9906004991301818e-01   6.8566719932859643e-01   8.3038043253166538e-01   8.0517806545383130e-01   9.7920837352952905e-01   9.8952573971349289e-01   9.8349798501291419e-01   9.8521191880768733e-01   1.0005816549623749e+00   1.0008617778062805e+00   9.9894027279195052e-01   9.8790352766494716e-01   2.3804478275564528e-01   2.9456427219821602e-01   8.7426594429782767e-01   8.5871995927067801e-01   8.7761955626425603e-01   8.5944837607997848e-01   9.3423116518834814e-01   9.4350579504345145e-01   9.6415988847446832e-01   9.7606357558977064e-01   6.2260850319433048e-01   5.9132745679127752e-01   9.2437434779931238e-01   8.8981914790825334e-01   5.5839076777006247e-01   5.4741171521551624e-01   3.6133718870928039e-01   2.9017864767624341e-01   9.1143214311999332e-01   9.0203869695323691e-01   6.8309082581857716e-01   7.5235005443577585e-01   6.7477930206495940e-01   7.1635479996316787e-01   7.1641568217580287e-01   7.1882543494991946e-01   7.3112777276558638e-01   7.3114913417568983e-01   9.5069959096423984e-01   9.4353043761859234e-01   6.1714232323278473e-01   6.5333405034753222e-01   9.7093693116481705e-01   9.7176584272340050e-01   7.4454244487954413e-01   7.6652324817667838e-01   4.6761447563627528e-01   5.1975720152648619e-01   8.0824637651278808e-01   7.9783596411701596e-01   9.3137399760262896e-01   9.3799865419271200e-01   5.1601202419136272e-01   4.5308416171038468e-01   9.9134001236893310e-01   9.8984167284945246e-01   8.0133649088712899e-01   7.7626012702934399e-01   9.9036186096540368e-01   9.9167915541900287e-01   9.5591422245743529e-01   9.5221848035880574e-01   9.8615792514941236e-01   9.8792694007621373e-01   4.5683200880020230e-01   4.3409313064426314e-01   8.2939231110041367e-01   8.2027097013140227e-01   3.5516365335112265e-01   7.1684199336627985e-01   7.494880