<?xml version="1.0"?>
<VTKFile type="UnstructuredGrid"  version="0.1"  >
<UnstructuredGrid>
<Piece  NumberOfPoints="1385" NumberOfCells="2640">
<Points>
<DataArray  type="Float64"  NumberOfComponents="3"  format="ascii">0 0 0  1 0 0  1 1 0  0 1 0  0.5 0 0  1 0.5 0  0.5 1 0  0 0.5 0  0.5 0.5 0  0 0.25 0  0.25 0 0  0.25 1 0  0 0.75 0  1 0.25 0  0.75 0 0  1 0.75 0  0.75 1 0  0.7083333333333333 0.2916666666666667 0  0.2916666666666666 0.7083333333333334 0  0.375 0.25 0  0.75 0.625 0  0.2569444444444444 0.4652777777777778 0  0.5366379310344828 0.7535919540229885 0  0.1875 0.1875 0  0.8125 0.8125 0  0.869047619047619 0.375 0  0.1450441919191919 0.6052714646464646 0  0.375 0.8690476190476191 0  0.5526960784313725 0.1825980392156862 0  0.8385416666666666 0.1614583333333334 0  0.1614583333333333 0.8385416666666667 0  0.6736111111111112 0.4652777777777778 0  0.1367521367521368 0.3477564102564102 0  0.6570970491253563 0.8648656830417855 0  0.5102479397556124 0.3386260301221938 0  0.3654513888888889 0.5737847222222222 0  0.6929750044954185 0.1362784921584263 0  0.388576102743835 0.411911725237599 0  0.6091269841269842 0.5942460317460317 0  0.875 0.6875 0  0.427278890279516 0.119889445139758 0  0.8544456845238095 0.5213913690476191 0  0.125 0 0  0 0.125 0  1 0.875 0  0.875 1 0  0.1280008648150532 0.4769292340226777 0  0.2695382451711197 0.3321750950221553 0  0.7031567235715964 0.7447810921428012 0  0.625 0 0  0.375 0 0  0.125 1 0  0.875 0 0  0 0.375 0  0 0.625 0  1 0.375 0  0.375 1 0  1 0.125 0  0 0.875 0  0.625 1 0  1 0.625 0  0.2979288363930608 0.1201429454643536 0  0.410919540229885 0.7484605911330049 0  0.5325041980395562 0.878905151526474 0  0.4831670727569156 0.6331060043826487 0  0.1735997378973042 0.7204747378973043 0  0.2534919507575758 0.5772372159090909 0  0.2633928571428572 0.8876488095238095 0  0.8199404761904761 0.2730654761904762 0  0.75830270586982 0.3919383189517417 0  0.5750282248382511 0.4237522353023667 0  0.6008360210023379 0.2794828358598495 0  0.08163442644334186 0.6821295860397322 0  0.08333333333333333 0.1875 0  0.2028380815996574 0.08844602719988583 0  0.2766521142611967 0.2325436572164097 0  0.90625 0.78125 0  0.890625 0.890625 0  0.7545696325008384 0.8973565441669461 0  0.5625 0.08086590340834317 0  0.09077380952380953 0.09077380952380952 0  0.4610923478694773 0.209034015149656 0  0.7542527598351648 0.5248380520595106 0  0.6459235536037465 0.3619913988405765 0  0.7560381768882634 0.20506142233852 0  0.07073252688172042 0.8125 0  0.0924753097241701 0.9078102849914793 0  0.9292674731182795 0.1875 0  0.9075246902758297 0.09218971500852073 0  0.8125 0.07073252688172045 0  0.2400955776842301 0.7869705776842302 0  0.9121050213379069 0.2781978201831695 0  0.7916878157143976 0.7239689078571988 0  0.9345238095238094 0.4375 0  0.4375 0.9345238095238095 0  0.3725616989755203 0.6651895248862173 0  0.06536271996350887 0.5625 0  0.9348362560379583 0.5625 0  0.456646798987055 0.8277247094351965 0  0.1875 0.9355758238725954 0  0.6169761231634859 0.6939779188977889 0  0.6226854751147515 0.7827911461419014 0  0.3305695598137626 0.7901697871282585 0  0.5865305325818898 0.5101085479043448 0  0.6622701297028378 0.2177663989757395 0  0.1354166666666667 0.2591702279202279 0  0 0.3125 0  0.2094429575680048 0.3936361846162499 0  0.836666296419157 0.607917407161686 0  0.6875 1 0  0.214261555450504 0.6492551722020035 0  0 0.4375 0  0.07731537126068377 0.40625 0  0.3427725432967068 0.4879566233699599 0  0.3550792513951871 0.3331953632609953 0  0.4462473953896857 0.2887834789342508 0  0.4747801464819794 0.417386052030127 0  0.8229836475148948 0.4443292349237342 0  0.7322605135514757 0.8199240278289671 0  0.6756431877205955 0.5468989748126787 0  0.1968419507215863 0.5194573482612496 0  0.3285590277777778 0.9345238095238095 0  0.8125 1 0  0.4198917601920009 0.5134893045331258 0  0.5232405503206691 0.2595791787880157 0  1 0.9375 0  0.1987510870015086 0.3025185951894431 0  0.5625 1 0  0.6005390654136388 0.9228110509230952 0  0.6411254848194414 0.07704872765442942 0  0.3357233162523242 0.1855113224530532 0  0.6730653396610877 0.6393887462324165 0  0.310966987234063 0.6240019765311626 0  0.7368737836204349 0.07457755202327881 0  0.6192316414418171 0.1485238406378594 0  0.5432429670607106 0.678552703844006 0  0.4754371679695679 0.7103946803120881 0  0.07501324890749672 0.3043839897335739 0  0.5358146975860403 0.5688321463205916 0  0.3115271739500156 0.3982137365971444 0  0.3625191397122174 0.0767854603650549 0  0.5024029442563831 0.1264128223758444 0  0.4375 0 0  0.4699946908887376 0.06379961173775725 0  0.9375 0.71875 0  0.9272105898044465 0.635671179608893 0  0.9375 1 0  0.6690971819568612 0.9331530898202766 0  0.1073454944778885 0.7499206387638554 0  0.8699082999280406 0.2232403652524313 0  0.5773118091863964 0.3548027349159383 0  0.1354166666666667 0.1428571428571428 0  0.3125 0 0  0.8241684193077341 0.9257452995055244 0  0.4352314948354036 0.3586940847489378 0  0.4351301473778832 0.5819726043539077 0  0.8073232928518163 0.3419398170341962 0  0.7775949246947366 0.1298519409204575 0  0.6875 0 0  0.7413513991851041 0.457933324954483 0  0.939453125 0.841796875 0  0.5630355154606987 0.8171875156478349 0  0.9345238095238095 0.3461466592368577 0  0.9375 0 0  1 0.0625 0  0.0625 1 0  0 0.9375 0  0.06552178593177167 0.4969053669623468 0  0.1424866619031703 0.4130277709291224 0  0.1275287182444726 0.5422946908002588 0  0.2637686595586339 0.06413888464529549 0  0.2524263535491086 0.1697437503243817 0  0.7367218397988525 0.6888573970660841 0  0.0625 0 0  0 0.0625 0  0.8463594539285995 0.7578283617857982 0  0.3128751192101563 0.2851997374369947 0  0.4015281788351144 0.1806421385113692 0  0.1910251795116588 0.4553332197174453 0  0.287797471442006 0.5222621440543902 0  0.3962628745986055 0.8097380085535307 0  0.3505895299554843 0.7304878890838692 0  0.5019151500495276 0.9356042615328103 0  0.9374389419410134 0.4999931039076005 0  0.3125 1 0  0.1875 1 0  1 0.5625 0  0.4375 1 0  1 0.3125 0  1 0.4375 0  0.8125 0 0  1 0.1875 0  0.5625 0 0  0.1875 0 0  0 0.1875 0  0 0.5625 0  0 0.6875 0  0 0.8125 0  1 0.6875 0  1 0.8125 0  0.8021696218581627 0.6612893947866073 0  0.06154922295426143 0.6239401126946708 0  0.9359375 0.9359375 0  0.4666158024849896 0.7691515918155014 0  0.2318201265217025 0.7064974250277525 0  0.1565954253579966 0.6635489312486841 0  0.1598132503680848 0.7787147500325552 0  0.3146529991605639 0.8510876378205265 0  0.1461873209418733 0.05982804528877814 0  0.06109554988524315 0.2446551776247686 0  0.8054950308560754 0.5564226538848541 0  0.470541749491976 0.8853316336952531 0  0.6948472567465137 0.4042308563372457 0  0.8802828472348889 0.4658893256343853 0  0.6788075634946739 0.7974194205806069 0  0.2155048659603867 0.2428201584940968 0  0.8131223143423806 0.2132171049028394 0  0.4330798005432235 0.6671274900735726 0  0.6015279126162613 0.2187368078743274 0  0.8061636571464289 0.8703766630361714 0  0.7008230445061776 0.3478568388444072 0  0.8638466246958771 0.3147095987735538 0  0.204801534004265 0.8789209409594009 0  0.2449006736431132 0.9424182882803838 0  0.7611268409371427 0.2643056884799992 0  0.7552800864046191 0.7678006649959446 0  0.5983639638906616 0.864113435029236 0  0.1956559506814437 0.577281203577426 0  0.3527670268164207 0.1320469097565204 0  0.7530364577483248 0.3262386077083089 0  0.4535919187979363 0.4690107087451527 0  0.8824869791666666 0.8336588541666666 0  0.8814453125 0.9451171875 0  0.5582987942628019 0.622421666543858 0  0.6817532446064828 0.6939001801354731 0  0.3830295138888889 0.9450968952922078 0  0.4140603937012541 0.05211333372716105 0  0.5535864501303013 0.3060591985391672 0  0.6560130086346878 0.2729726562211558 0  0.890203140221684 0.5948314305427268 0  0.7043857725999024 0.593980890020804 0  0.5105843922695152 0.8016828014338627 0  0.05365910753708378 0.7315110031682004 0  0.616904573672261 0.4621186633436136 0  0.5338511646455415 0.387875898899613 0  0.5231769258947843 0.4477682463140762 0  0.650302973237622 0.7370722302085519 0  0.3927483139621257 0.4662414504529014 0  0.8034595960585199 0.4972538342758211 0  0.7738337841682438 0.9496376207663251 0  0.7193737507158268 0.954685447650112 0  0.482525916480686 0.5528257169991676 0  0.2533501157346781 0.2809495420003238 0  0.3118487924482243 0.5702930126570319 0  0.6257598847669529 0.4104163315430518 0  0.1354166666666667 0.1955605158730158 0  0.04166666666666666 0.15625 0  0.3956448985530264 0.6174149462065157 0  0.8102897701818546 0.3938784238208349 0  0.2641154190013625 0.8344469561943118 0  0.642852220770013 0.5068794586563659 0  0.05271458179508221 0.355846947336007 0  0.7021551360070266 0.8921457280225779 0  0.5692125776683765 0.1328512638850284 0  0.5206162811937602 0.04865158770992991 0  0.6001838442201555 0.04540556991297563 0  0.2597716608242787 0.4118346398477178 0  0.4040584599473195 0.3179589136784675 0  0.1480337679295207 0.8941560631483065 0  0.1344356707112281 0.9466251177415842 0  0.7114696411829317 0.4983917389078826 0  0.7585704698442475 0.5751926345944629 0  0.2189131956390871 0.04022068508159698 0  0.2476935455192043 0.1123642267635843 0  0.185995005654517 0.1365524537205238 0  0.6223414373308711 0.643380839165121 0  0.5732602596637543 0.7190051747306219 0  0.268358222364537 0.6586246524467934 0  0.3265879848129173 0.2369791782191225 0  0.1267095595787346 0.7034787238999181 0  0.1115202922226038 0.6421997933884982 0  0.3128688392940203 0.07260997451790079 0  0.550724900485678 0.9253360991633187 0  0.7142608810459105 0.2384904702214873 0  0.7045869185243887 0.1871826897887429 0  0.890625 0.734375 0  0.953125 0.765625 0  0.2111812642821677 0.8286209446459138 0  0.9590293078204457 0.09375 0  0.953431269039847 0.1435719386408004 0  0.04097069217955424 0.90625 0  0.04656873096015299 0.8564280613591996 0  0.1078743037981226 0.8541621766048062 0  0.8921256962018773 0.1458378233951939 0  0.8521576979194619 0.1084496634207678 0  0.8655663982740958 0.05464346096571447 0  0.04005659640905543 0.09375 0  0.1001448316533417 0.04246776244228261 
[...]
<CellData  Scalars="f_8394-4"> 
<DataArray  type="Float64"  Name="f_8394-4"  format="ascii">7.6315330380450719e-01   4.0363932309109329e-01   4.8297896981045829e-01   2.4999598951007890e-01   6.3550955627387662e-01   3.8252612717679424e-01   7.7362818427486391e-01   9.0508217306578453e-01   8.0524108363327607e-01   6.5943358352956516e-01   4.9618703880280146e-01   1.0004824151558891e+00   1.0006517907964581e+00   9.9446741144862794e-01   9.9675422031593963e-01   9.5977831059538943e-01   9.8277816444827215e-01   7.7278645164362147e-01   8.5737553316954607e-01   7.2939707220268835e-01   6.8607685468530999e-01   9.4768529478832375e-01   9.5656166916771745e-01   8.6594698989067320e-01   7.5385851875138521e-01   9.2989994694068212e-01   1.0965725111006966e-01   7.8159067297503881e-01   9.0715514841409295e-01   6.7200040881059053e-01   9.1353178094775234e-01   9.2661026060541174e-01   8.0827171373400253e-01   9.9981009231605877e-01   5.4640302243072536e-01   6.1205656165228317e-01   8.2259494675599798e-01   8.9214291494733111e-01   6.9203176888013351e-01   7.4658935391497672e-01   7.3296432216460361e-01   8.2766862138310160e-01   9.8824066687296275e-01   9.9543023313131995e-01   3.9235939826494715e-01   9.9937668791197287e-01   9.8240272764866110e-01   2.7420218076403868e-01   9.8135186496118110e-01   9.9768892893769578e-01   9.9286363819355916e-01   9.7412737144728312e-01   7.2033343766329128e-01   5.8823907850384916e-01   6.3928689645738279e-01   9.9840749543338436e-01   9.6206895951018234e-01   6.9472076780210235e-01   5.0777559050007104e-01   8.3832135700898758e-01   8.7585205559419177e-01   7.7860445945026890e-01   3.7485515894408111e-01   6.7146438814661080e-01   5.8487811057169459e-01   9.1840972445358626e-01   8.5631712833629225e-01   8.2773178644402590e-01   8.9466639333382736e-01   9.9802203498702835e-01   9.9646700638294250e-01   9.9939719290197326e-01   4.6789324817006483e-01   8.6534076675950944e-01   9.6521559131487977e-01   9.5357320662075562e-01   9.8090207368783533e-01   9.3045004161425748e-01   9.3722797811854519e-01   7.0666887806497114e-01   6.6133397083770273e-01   6.6281897084902386e-01   7.1016624961126273e-01   9.3001274375994547e-01   9.1938729388528362e-01   7.9098669530219046e-01   8.7687351942869363e-01   9.4147651719903591e-01   9.1120224127165195e-01   8.1601824246420640e-01   7.0983133902133499e-01   7.9415159429983861e-01   2.8556811434563278e-01   3.0306085888603540e-01   4.2969919044606580e-01   4.5382885415861995e-01   4.9518187543931635e-01   9.9176495207953119e-01   9.9739550671500932e-01   5.7059367859388521e-01   5.3289191143860881e-01   6.9021843715507947e-01   6.1658516794253870e-01   9.5511403426573405e-01   9.3603631673717291e-01   9.2147341332139032e-01   8.9719613286213096e-01   8.0329585428322603e-01   7.2667685657015646e-01   8.1120492008099954e-01   8.3455499873459205e-01   8.7136429075113897e-01   8.9880465850453362e-01   7.6993666169422714e-01   7.4757112176348062e-01   8.1999192948685973e-01   8.1332090130237444e-01   9.3347346605082338e-01   9.9970595230049564e-01   9.9910980759991186e-01   9.7785699006701265e-01   9.9025780017174736e-01   7.3315218279830985e-01   8.3957398328850619e-01   5.8140185516671716e-01   5.9760682242278407e-01   9.8465247641756837e-01   9.9676141498200277e-01   9.7422337661086400e-01   9.0460756516217511e-01   9.2124388553308223e-01   9.2763865343149898e-01   9.9245422894164659e-01   9.8527523995276867e-01   9.4329503346454113e-01   9.7047495013523588e-01   9.5591305068690358e-01   9.0828323778502784e-01   7.6459317598008592e-01   8.3576344780657219e-01   4.2124751142776473e-01   3.6517326322127941e-01   4.0925979142289404e-01   3.2037256949039039e-01   6.2317539687363188e-01   5.8567632042409035e-01   1.0013103493099285e+00   9.8999616909503163e-01   9.9886416686718726e-01   1.0005697494951513e+00   8.0570252407562737e-01   7.5999678740822196e-01   4.6353578388907130e-01   4.0291803887321437e-01   5.0436268761885161e-01   7.3915621838763423e-01   7.1297606691473003e-01   6.6364006187936353e-01   7.1295816562323344e-01   7.3763697907700043e-01   6.5326115251885275e-01   8.0639539674311045e-01   8.5561200256379000e-01   9.7054264281536073e-01   9.5625385069480584e-01   1.0006130555021002e+00   1.0000712827708429e+00   9.4857418171674968e-01   8.7553701897897829e-01   5.6185222438111448e-01   5.6444475800439509e-01   9.4934006607897659e-01   9.6200211323917573e-01   9.5373056084372476e-01   9.7591363808005838e-01   8.5725881992530406e-01   8.6830841578213203e-01   8.0820086997006013e-01   7.1277827311326902e-01   9.6196996113550004e-01   9.7001746375937092e-01   4.9858913499277691e-01   4.8751214470122400e-01   9.9496210559350906e-01   1.0012702291429028e+00   1.0013105315027897e+00   1.0010607899268777e+00   7.5841625736650498e-01   5.3339299013258867e-01   5.2615890937058318e-01   9.6290808796029148e-01   9.7145774205811863e-01   7.8903844065468787e-01   7.7501176109039016e-01   6.7264020289678794e-01   7.1668013402093900e-01   6.8617879835018869e-01   7.3196174577050588e-01   9.4395690649984876e-01   9.0167782751797310e-01   8.7941421255378405e-01   9.1648555314287772e-01   3.0651257857405140e-01   4.8137494788553609e-01   9.0373463179255020e-01   9.1667303457326188e-01   7.2804574461980764e-01   6.5581795699180778e-01   4.6385180076137628e-01   5.5944883276635138e-01   5.6836652745039962e-01   5.1614148077710631e-01   4.5027552608483662e-01   4.8371942703448750e-01   4.1702839847720219e-01   1.0003339353332326e+00   9.9622721167565764e-01   1.0013161489558746e+00   9.6389924479401934e-01   9.9318910805149607e-01   7.3645579649779591e-01   7.5586058926632949e-01   8.8217561616218398e-01   9.1898769328720065e-01   8.4874746595132933e-01   7.2789472417058432e-01   2.8293748023711085e-01   2.5363123173443419e-01   9.9585683047824158e-01   9.8662294023310160e-01   6.4473778159294881e-01   6.5682497100568904e-01   8.7554064596699754e-01   8.2072717305859044e-01   8.7595976353675120e-01   9.2845829437815597e-01   8.5629552878746473e-01   8.0779438992392139e-01   6.4382595091669392e-01   9.2140909271436233e-01   8.8751882691907102e-01   9.7854443736281738e-01   9.7787410609975756e-01   9.4081674647530622e-01   9.6761556112373115e-01   9.6298124006002239e-01   8.6168635287598172e-01   8.2476240992763483e-01   8.7902732570493791e-01   4.5122545936652109e-01   5.5518357453493394e-01   4.9565567066149890e-01   4.6718432733372944e-01   6.4180546480403688e-01   6.9948091164309811e-01   3.0449822092547235e-01   3.4515137953704833e-01   3.5538705401670789e-01   4.2461977703817616e-01   9.8657027961478028e-01   9.9243542863421896e-01   7.9422857829078222e-02   8.4831773076494213e-02   1.3159425569411831e-01   9.9701034797367227e-01   9.9274473953637599e-01   5.4605490541537249e-01   4.8515121276825157e-01   4.8098816706427394e-01   6.3010086311658575e-01   6.9099656022651390e-01   6.8752111033329111e-01   7.0196648022680053e-01   7.5368927159755050e-01   9.1270352407749833e-01   9.4079755010309762e-01   8.7225277119002953e-01   8.8766549486824542e-01   9.9944796564092908e-01   9.9785139063446893e-01   9.8263756401128954e-01   9.3268256854210996e-01   8.7156160024033924e-01   9.0226655481585638e-01   9.9997903620759554e-01   9.7761336569468182e-01   9.9707211062072965e-01   9.5377339715533360e-01   9.5119279342415253e-01   9.7661444327885072e-01   8.0345347963497371e-01   9.0595645358748866e-01   8.9343384190122022e-01   5.9600443853999141e-01   5.1911127819715419e-01   2.1341901285820072e-01   2.7848285576782478e-01   6.1027008499247615e-01   6.6981490377051756e-01   7.1168720627410598e-01   7.5708483711411689e-01   7.7261004364739538e-01   9.9923946745900916e-01   9.8667851876569324e-01   9.9749488387257801e-01   9.8750395714487393e-01   6.0925377762088273e-01   9.4377991668672789e-01   9.5271450435879335e-01   9.5217527391694379e-01   9.6592761782032022e-01   8.8016014440088275e-01   8.1244333686265735e-01   7.3191470765947131e-01   7.1511399103236184e-01   8.4380257731938324e-01   8.4549134407694149e-01   9.2514286555294678e-01   9.3740019575737521e-01   1.8006755343489458e-01   2.4227407765414996e-01   2.5922816414328342e-01   9.8230266259025278e-01   9.7232484023647514e-01   9.5600978829430949e-01   9.5085817597288647e-01   9.4155413052315728e-01   9.0597201114669801e-01   9.8114154355624583e-01   9.9315003783463052e-01   9.9277272114803894e-01   9.8867761307997548e-01   3.7948244934806658e-01   4.8955925511755072e-01   8.0468244326738492e-01   8.6373174927954144e-01   8.6513110544734029e-01   8.8788967302837551e-01   7.3077316049919472e-01   7.1741636006957665e-01   1.0005205968736739e+00   9.9975460618562850e-01   8.3875777725827838e-01   8.2914415637324257e-01   9.2553042979588729e-01   9.1369788097755822e-01   8.8612471067964249e-01   9.2614198209457987e-01   9.2720008614030935e-01   8.8594822173476184e-01   8.3810316809540908e-01   9.9410891964833703e-01   9.9926316578580554e-01   9.9521208859688504e-01   9.9736583331990714e-01   7.8828936607983324e-01   6.7813131430571083e-01   4.6381063915533188e-01   3.4103805762130746e-01   8.8434834249597083e-01   8.8393374690608129e-01   7.8568439434298076e-01   8.0863092287956928e-01   9.9790398014472037e-01   9.8995258224352933e-01   9.6091174436028837e-01   9.6303244226889273e-01   9.6710354883550320e-01   9.9135634067738743e-01   9.7632014960159186e-01   9.7747555476896786e-01   7.9477701063186756e-01   7.2926756256993219e-01   7.9688262291731471e-01   7.8180676633058466e-01   9.9255567228178632e-01   9.9864435120862372e-01   9.6298403103753272e-01   9.7793447200430272e-01   9.7305256768676784e-01   9.7996734741476044e-01   6.5097040022862596e-01   6.9018136445737699e-01   8.8748759947913713e-01   8.6898903748674161e-01   8.0621274452476410e-01   8.1292380116015306e-01   8.6644849459962747e-01   8.5486423890577112e-01   9.8862378626977265e-01   9.7450309141036073e-01   7.4398112025299556e-01   7.2624170791453191e-01   9.7232141764443181e-01   9.5829637326015038e-01   1.0006663025011764e+00   9.9893667650684537e-01   9.9815601576291912e-01   8.7431278822420333e-01   8.9852349869263970e-01   5.2809102340999847e-01   5.1920032891745749e-01   7.8817823771598827e-01   8.3965684178070166e-01   8.3457378925747672e-01   8.5014135195942886e-01   2.4546278695501192e-01   3.5986911770922736e-01   2.4198211316059803e-01   2.0787220619186339e-01   8.3507641999490234e-01   8.3457760307766615e-01   9.5522703211710336e-01   9.3237628519744586e-01   8.6866862113725496e-01   8.7679212483446656e-01   9.3398360483662257e-01   9.1616535777482588e-01   4.1596169433761399e-01   4.3858997028061331e-01   1.0007432328778685e+00   1.0004916403619839e+00   5.9908875425157215e-01   5.7895548364637084e-01   6.1326740366157695e-01   6.1074099816913940e-01   5.5569723043048169e-01   6.3986341774502464e-01   6.1644771723818326e-01   6.2676950894174732e-01   8.5266608866431881e-01   8.3436095347767114e-01   8.9282497946058870e-01   8.8558453912184887e-01   9.2022632716293418e-01   9.6538311144865996e-01   9.6819608013123637e-01   9.7114903243677109e-01   3.0075233078960167e-01   2.8452597461422602e-01   2.7877242827830484e-01   3.8929330869888223e-01   3.3830129404020598e-01   3.4346387086956759e-01   9.4750223990338922e-01   9.5515596946345072e-01   9.8377509701561083e-01   9.6853865675193507e-01   8.3515067809924470e-01   7.7591135320433702e-01   5.7933295096230630e-01   4.9663649280358285e-01   7.0160616983379454e-01   7.4969376595159565e-01   6.9943166822353375e-01   6.8775147916340162e-01   4.2628152547289339e-01   3.7925356183596515e-01   9.9683539263242438e-01   9.9621996598748497e-01   8.4324815762447802e-01   8.1547830460474058e-01   8.3733430911577589e-01   8.3025758289411544e-01   9.9960034160492950e-01   1.0013232604823636e+00   9.7789831509200331e-01   9.9258290459249754e-01   8.5170005766915824e-01   8.2538937620944319e-01   8.8088233601172750e-01   8.3573012062985319e-01   9.2997982279495717e-01   7.9948155992880998e-01   8.2724493865030835e-01   7.6219163678344071e-01   8.2262132930363940e-01   8.0797019306861395e-01   9.0907670982738076e-01   8.6591648130224219e-01   8.1407720854964449e-01   8.1318610684639592e-01   7.8358357609251517e-01   8.5687267608762197e-01   2.2578594280968467e-01   2.1829468934689542e-01   1.6336147758644889e-01   1.3367586360866038e-01   8.2196868445567972e-01   8.5323905317431481e-01   8.3462050958529410e-01   9.6728931158267517e-01   9.4288289468290820e-01   7.6907566425211549e-01   6.7427167252737086e-01   7.2095549699301931e-01   6.1811567634904774e-01   5.5526823380304280e-01   5.0570481577978721e-01   6.6696019968764864e-01   6.2239749247983089e-01   7.7720808589846913e-01   7.9710343973032705e-01   9.4142359774047002e-01   9.2748575356197782e-01   7.3056402399902154e-01   6.6947510051510895e-01   2.0453333718416508e-01   2.6071339045977732e-01   9.2794101930788764e-01   7.3196994652047098e-01   7.1261156976109541e-01   9.6489104787926294e-01   9.2482725856207504e-01   9.8479145173884197e-01   9.6469512597183005e-01   7.9260413792184625e-01   8.4998082756655469e-01   8.1762329278279777e-01   8.4583983234971172e-01   8.3500615005984302e-01   8.2159389673151795e-01   9.9957457574038999e-01   9.9812467117239967e-01   7.5650995484106376e-01   7.3629805225690026e-01   8.9851179752563504e-01   9.1385803074947192e-01   7.4463098296890173e-01   7.6571623398139144e-01   5.1835210068425175e-01   5.4483563875665508e-01   9.1637094129690122e-01   8.9941521007839009e-01   8.0107784509570756e-01   8.6295393594200187e-01   8.7475646013713304e-01   9.3779692551874694e-01   3.5748209679726672e-01   3.7516743317166157e-01   9.7212449626878894e-01   9.7065822339473651e-01   9.7191947835671710e-01   9.5548105715376341e-01   4.8464965717456976e-01   5.2984199039432012e-01   9.8479698174733310e-01   9.8094486821078719e-01   3.5493219972906687e-01   2.9933955049948852e-01   6.3031869872070545e-01   6.5487074975127235e-01   6.4604600500997111e-01   6.9201008560438371e-01   9.9943927798134624e-01   1.0011920773584138e+00   1.0012886983436844e+00   9.9883767905822796e-01   9.7764884707027933e-01   9.7286420822878694e-01   8.1606709779310360e-01   8.1625611137810350e-01   8.7683403357014289e-01   9.1896001450246434e-01   9.2251860439642053e-01   9.2107571313180547e-01   9.8787046629494379e-01   6.3207816186850785e-01   5.9495084907485529e-01   4.9842040275550203e-01   5.7524344596587451e-01   1.0010466997924001e+00   9.9259002502975902e-01   9.9584753928904746e-01   6.9236558025927930e-01   7.2127449919342268e-01   6.2608855905888161e-01   6.1383886048958691e-01   8.3427158913235688e-01   8.6179295006459433e-01   1.0009505858967336e+00   1.0013180230444605e+00   6.9409302051931043e-01   6.8601840675707582e-01   1.0012151503034485e+00   9.9849525016995033e-01   9.9657172557662244e-01   9.9882030397641108e-01   8.8069232123981445e-01   8.7049700204600067e-01   9.5460628549004456e-01   9.5612128456407064e-01   8.1809511456564377e-01   8.0379346699959719e-01   3.2837736381431160e-01   3.9585504497788293e-01   3.2839001109418697e-01   3.4541841261045469e-01   4.9041368569314159e-01   4.5247779005222244e-01   6.6576011478960184e-01   4.7090725735303118e-01   9.9859327393933006e-01   9.9712488951324629e-01   9.9501973336952976e-01   9.8158796069479171e-01   1.0007145917178786e+00   9.8465824296810911e-01   9.7802850851433032e-01   9.9867818408195597e-01   9.9196091593977187e-01   7.0581655130597898e-01   6.7113976254917729e-01   9.6956803292604488e-01   9.6694275415490583e-01   1.0011965215053267e+00   1.0012059960181328e+00   8.5082388590424129e-01   8.8648520317614088e-01   5.5193658970302861e-01   5.6962657964827135e-01   9.8134865277146333e-01   9.9359076136067315e-01   9.4740140832056874e-01   9.2484491260693658e-01   7.4031996077337914e-01   7.6612177019960637e-01   1.8419995351862320e-01   2.3591028411019963e-01   7.8204509867749028e-01   7.9287257950824064e-01   9.9948548960854366e-01   5.5229639011124998e-01   5.4813008420755938e-01   6.4069023347101806e-01   5.8513558275791167e-01   6.2778950587678306e-01   6.2318907856416461e-01   6.2315247982621591e-01   6.5320384074421955e-01   8.6483950521881570e-01   9.1900545665031241e-01   9.5264536389823073e-01   9.5237964439585632e-01   9.2268585716056406e-01   9.1816090418810969e-01   8.7713090256281701e-01   8.9297518037988954e-01   9.4936864770205864e-01   9.5018208580870767e-01   8.0834839741805231e-01   8.0542440091826450e-01   4.9258617910498997e-01   4.4269927258346581e-01   6.5309265887187473e-01   6.5410544713694330e-01   6.9939295388039402e-01   6.7665640235654234e-01   7.5131307814626147e-01   7.1247040591927857e-01   9.5095460320112402e-01   9.5781958595779060e-01   4.8402346696772913e-01   4.3934376955712784e-01   6.8361827753430848e-01   6.6732690154891749e-01   9.9877896043251391e-01   9.9705514716595256e-01   9.3267560150649254e-01   9.0668418173659293e-01   9.9834661168414374e-01   1.0011611244496259e+00   1.6728925912859569e-01   2.6170035923381385e-01   4.4031056979011063e-01   9.3260855426190825e-01   9.5601890532287559e-01   9.5098477351139199e-01   9.3432347665105253e-01   8.8404969971284708e-01   9.0988472871316695e-01   9.8149439518723058e-01   9.8339132831446563e-01   9.9843362263900270e-01   7.4628168232093328e-01   7.1781240403951008e-01   4.8844155591725968e-01   4.9999437653677242e-01   8.0254845720220713e-01   8.2073315550762616e-01   8.3000176090800726e-01   7.8120752532790827e-01   7.1425771689804118e-01   6.7206517946801680e-01   4.3517281064714475e-01   4.7175627290919719e-01   9.3272321244241130e-01   9.4616251640873283e-01   4.3022338400851490e-01   4.2293161211196850e-01   7.4129105102591397e-01   7.9676599869161968e-01   6.5342107221873780e-01   6.2518305727286072e-01   9.4234783036359449e-01   9.3342732370596015e-01   4.2438288967481214e-01   3.9437098176360547e-01   8.1675970755961114e-01   8.5109124653445556e-01   7.9383164237426540e-01   7.9852844845478432e-01   9.3293077329145879e-01   9.3829302558933025e-01   7.1213857326245045e-01   7.4145683779292215e-01   6.4364426674108122e-01   6.4154957111853050e-01   9.8931321833302810e-01   9.9440074464870365e-01   1.0010534336720296e+00   1.0012591702173386e+00   6.4419386922934796e-01   5.9977578811199095e-01   6.9933620083559045e-01   6.8593885901520080e-01   8.3070903338136226e-01   8.0549897803108417e-01   9.7959744750465338e-01   9.8991908053056865e-01   9.8388889540167734e-01   9.8560286361526406e-01   1.0009804986247954e+00   1.0012589365179749e+00   9.9933634021752227e-01   9.8829701967204564e-01   2.3813652742342453e-01   2.9466842918952590e-01   8.7461177711005711e-01   8.5905906413803779e-01   8.7796868129624728e-01   8.5979157568466358e-01   9.3460112821303387e-01   9.4387718450469105e-01   9.6453861757458326e-01   9.7644083891704447e-01   6.2285501369975649e-01   5.9156074458554875e-01   9.2474068977178625e-01   8.9017336959169668e-01   5.5860316673033272e-01   5.4761845100074713e-01   3.6147222213558572e-01   2.9027752662170081e-01   9.1179565403603535e-01   9.0239735557703382e-01   6.8335776838766904e-01   7.5264866491086457e-01   6.7504398790179998e-01   7.1663530885242455e-01   7.1669967984036465e-01   7.1911033107275513e-01   7.3141664773531834e-01   7.3143897823263160e-01   9.5104762629326656e-01   9.4388349068650634e-01   6.1738538182825686e-01   6.5359258738374226e-01   9.7132389283849230e-01   9.7215285275431118e-01   7.4483929961830408e-01   7.6682844429146557e-01   4.6779368652114539e-01   5.1996226938186518e-01   8.0855343636857013e-01   7.9814323315819680e-01   9.3174463275315522e-01   9.3837123032066150e-01   5.1621631730366802e-01   4.5325450384925914e-01   9.9173567597292012e-01   9.9023660892409038e-01   8.0165521746975765e-01   7.7656855919405565e-01   9.9075282442692814e-01   9.9207008750625736e-01   9.5629114947569649e-01   9.5259644317283432e-01   9.8653868908610443e-01   9.8831010487038451e-01   4.5701273964481565e-01   4.3426573608061875e-01   8.2972403358583047e-01   8.2059677488321969e-01   3.5529173209022136e-01   7.1712574399237694e-01   7.497839