<?xml version="1.0"?>
<VTKFile type="UnstructuredGrid"  version="0.1"  >
<UnstructuredGrid>
<Piece  NumberOfPoints="1385" NumberOfCells="2640">
<Points>
<DataArray  type="Float64"  NumberOfComponents="3"  format="ascii">0 0 0  1 0 0  1 1 0  0 1 0  0.5 0 0  1 0.5 0  0.5 1 0  0 0.5 0  0.5 0.5 0  0 0.25 0  0.25 0 0  0.25 1 0  0 0.75 0  1 0.25 0  0.75 0 0  1 0.75 0  0.75 1 0  0.7083333333333333 0.2916666666666667 0  0.2916666666666666 0.7083333333333334 0  0.375 0.25 0  0.75 0.625 0  0.2569444444444444 0.4652777777777778 0  0.5366379310344828 0.7535919540229885 0  0.1875 0.1875 0  0.8125 0.8125 0  0.869047619047619 0.375 0  0.1450441919191919 0.6052714646464646 0  0.375 0.8690476190476191 0  0.5526960784313725 0.1825980392156862 0  0.8385416666666666 0.1614583333333334 0  0.1614583333333333 0.8385416666666667 0  0.6736111111111112 0.4652777777777778 0  0.1367521367521368 0.3477564102564102 0  0.6570970491253563 0.8648656830417855 0  0.5102479397556124 0.3386260301221938 0  0.3654513888888889 0.5737847222222222 0  0.6929750044954185 0.1362784921584263 0  0.388576102743835 0.411911725237599 0  0.6091269841269842 0.5942460317460317 0  0.875 0.6875 0  0.427278890279516 0.119889445139758 0  0.8544456845238095 0.5213913690476191 0  0.125 0 0  0 0.125 0  1 0.875 0  0.875 1 0  0.1280008648150532 0.4769292340226777 0  0.2695382451711197 0.3321750950221553 0  0.7031567235715964 0.7447810921428012 0  0.625 0 0  0.375 0 0  0.125 1 0  0.875 0 0  0 0.375 0  0 0.625 0  1 0.375 0  0.375 1 0  1 0.125 0  0 0.875 0  0.625 1 0  1 0.625 0  0.2979288363930608 0.1201429454643536 0  0.410919540229885 0.7484605911330049 0  0.5325041980395562 0.878905151526474 0  0.4831670727569156 0.6331060043826487 0  0.1735997378973042 0.7204747378973043 0  0.2534919507575758 0.5772372159090909 0  0.2633928571428572 0.8876488095238095 0  0.8199404761904761 0.2730654761904762 0  0.75830270586982 0.3919383189517417 0  0.5750282248382511 0.4237522353023667 0  0.6008360210023379 0.2794828358598495 0  0.08163442644334186 0.6821295860397322 0  0.08333333333333333 0.1875 0  0.2028380815996574 0.08844602719988583 0  0.2766521142611967 0.2325436572164097 0  0.90625 0.78125 0  0.890625 0.890625 0  0.7545696325008384 0.8973565441669461 0  0.5625 0.08086590340834317 0  0.09077380952380953 0.09077380952380952 0  0.4610923478694773 0.209034015149656 0  0.7542527598351648 0.5248380520595106 0  0.6459235536037465 0.3619913988405765 0  0.7560381768882634 0.20506142233852 0  0.07073252688172042 0.8125 0  0.0924753097241701 0.9078102849914793 0  0.9292674731182795 0.1875 0  0.9075246902758297 0.09218971500852073 0  0.8125 0.07073252688172045 0  0.2400955776842301 0.7869705776842302 0  0.9121050213379069 0.2781978201831695 0  0.7916878157143976 0.7239689078571988 0  0.9345238095238094 0.4375 0  0.4375 0.9345238095238095 0  0.3725616989755203 0.6651895248862173 0  0.06536271996350887 0.5625 0  0.9348362560379583 0.5625 0  0.456646798987055 0.8277247094351965 0  0.1875 0.9355758238725954 0  0.6169761231634859 0.6939779188977889 0  0.6226854751147515 0.7827911461419014 0  0.3305695598137626 0.7901697871282585 0  0.5865305325818898 0.5101085479043448 0  0.6622701297028378 0.2177663989757395 0  0.1354166666666667 0.2591702279202279 0  0 0.3125 0  0.2094429575680048 0.3936361846162499 0  0.836666296419157 0.607917407161686 0  0.6875 1 0  0.214261555450504 0.6492551722020035 0  0 0.4375 0  0.07731537126068377 0.40625 0  0.3427725432967068 0.4879566233699599 0  0.3550792513951871 0.3331953632609953 0  0.4462473953896857 0.2887834789342508 0  0.4747801464819794 0.417386052030127 0  0.8229836475148948 0.4443292349237342 0  0.7322605135514757 0.8199240278289671 0  0.6756431877205955 0.5468989748126787 0  0.1968419507215863 0.5194573482612496 0  0.3285590277777778 0.9345238095238095 0  0.8125 1 0  0.4198917601920009 0.5134893045331258 0  0.5232405503206691 0.2595791787880157 0  1 0.9375 0  0.1987510870015086 0.3025185951894431 0  0.5625 1 0  0.6005390654136388 0.9228110509230952 0  0.6411254848194414 0.07704872765442942 0  0.3357233162523242 0.1855113224530532 0  0.6730653396610877 0.6393887462324165 0  0.310966987234063 0.6240019765311626 0  0.7368737836204349 0.07457755202327881 0  0.6192316414418171 0.1485238406378594 0  0.5432429670607106 0.678552703844006 0  0.4754371679695679 0.7103946803120881 0  0.07501324890749672 0.3043839897335739 0  0.5358146975860403 0.5688321463205916 0  0.3115271739500156 0.3982137365971444 0  0.3625191397122174 0.0767854603650549 0  0.5024029442563831 0.1264128223758444 0  0.4375 0 0  0.4699946908887376 0.06379961173775725 0  0.9375 0.71875 0  0.9272105898044465 0.635671179608893 0  0.9375 1 0  0.6690971819568612 0.9331530898202766 0  0.1073454944778885 0.7499206387638554 0  0.8699082999280406 0.2232403652524313 0  0.5773118091863964 0.3548027349159383 0  0.1354166666666667 0.1428571428571428 0  0.3125 0 0  0.8241684193077341 0.9257452995055244 0  0.4352314948354036 0.3586940847489378 0  0.4351301473778832 0.5819726043539077 0  0.8073232928518163 0.3419398170341962 0  0.7775949246947366 0.1298519409204575 0  0.6875 0 0  0.7413513991851041 0.457933324954483 0  0.939453125 0.841796875 0  0.5630355154606987 0.8171875156478349 0  0.9345238095238095 0.3461466592368577 0  0.9375 0 0  1 0.0625 0  0.0625 1 0  0 0.9375 0  0.06552178593177167 0.4969053669623468 0  0.1424866619031703 0.4130277709291224 0  0.1275287182444726 0.5422946908002588 0  0.2637686595586339 0.06413888464529549 0  0.2524263535491086 0.1697437503243817 0  0.7367218397988525 0.6888573970660841 0  0.0625 0 0  0 0.0625 0  0.8463594539285995 0.7578283617857982 0  0.3128751192101563 0.2851997374369947 0  0.4015281788351144 0.1806421385113692 0  0.1910251795116588 0.4553332197174453 0  0.287797471442006 0.5222621440543902 0  0.3962628745986055 0.8097380085535307 0  0.3505895299554843 0.7304878890838692 0  0.5019151500495276 0.9356042615328103 0  0.9374389419410134 0.4999931039076005 0  0.3125 1 0  0.1875 1 0  1 0.5625 0  0.4375 1 0  1 0.3125 0  1 0.4375 0  0.8125 0 0  1 0.1875 0  0.5625 0 0  0.1875 0 0  0 0.1875 0  0 0.5625 0  0 0.6875 0  0 0.8125 0  1 0.6875 0  1 0.8125 0  0.8021696218581627 0.6612893947866073 0  0.06154922295426143 0.6239401126946708 0  0.9359375 0.9359375 0  0.4666158024849896 0.7691515918155014 0  0.2318201265217025 0.7064974250277525 0  0.1565954253579966 0.6635489312486841 0  0.1598132503680848 0.7787147500325552 0  0.3146529991605639 0.8510876378205265 0  0.1461873209418733 0.05982804528877814 0  0.06109554988524315 0.2446551776247686 0  0.8054950308560754 0.5564226538848541 0  0.470541749491976 0.8853316336952531 0  0.6948472567465137 0.4042308563372457 0  0.8802828472348889 0.4658893256343853 0  0.6788075634946739 0.7974194205806069 0  0.2155048659603867 0.2428201584940968 0  0.8131223143423806 0.2132171049028394 0  0.4330798005432235 0.6671274900735726 0  0.6015279126162613 0.2187368078743274 0  0.8061636571464289 0.8703766630361714 0  0.7008230445061776 0.3478568388444072 0  0.8638466246958771 0.3147095987735538 0  0.204801534004265 0.8789209409594009 0  0.2449006736431132 0.9424182882803838 0  0.7611268409371427 0.2643056884799992 0  0.7552800864046191 0.7678006649959446 0  0.5983639638906616 0.864113435029236 0  0.1956559506814437 0.577281203577426 0  0.3527670268164207 0.1320469097565204 0  0.7530364577483248 0.3262386077083089 0  0.4535919187979363 0.4690107087451527 0  0.8824869791666666 0.8336588541666666 0  0.8814453125 0.9451171875 0  0.5582987942628019 0.622421666543858 0  0.6817532446064828 0.6939001801354731 0  0.3830295138888889 0.9450968952922078 0  0.4140603937012541 0.05211333372716105 0  0.5535864501303013 0.3060591985391672 0  0.6560130086346878 0.2729726562211558 0  0.890203140221684 0.5948314305427268 0  0.7043857725999024 0.593980890020804 0  0.5105843922695152 0.8016828014338627 0  0.05365910753708378 0.7315110031682004 0  0.616904573672261 0.4621186633436136 0  0.5338511646455415 0.387875898899613 0  0.5231769258947843 0.4477682463140762 0  0.650302973237622 0.7370722302085519 0  0.3927483139621257 0.4662414504529014 0  0.8034595960585199 0.4972538342758211 0  0.7738337841682438 0.9496376207663251 0  0.7193737507158268 0.954685447650112 0  0.482525916480686 0.5528257169991676 0  0.2533501157346781 0.2809495420003238 0  0.3118487924482243 0.5702930126570319 0  0.6257598847669529 0.4104163315430518 0  0.1354166666666667 0.1955605158730158 0  0.04166666666666666 0.15625 0  0.3956448985530264 0.6174149462065157 0  0.8102897701818546 0.3938784238208349 0  0.2641154190013625 0.8344469561943118 0  0.642852220770013 0.5068794586563659 0  0.05271458179508221 0.355846947336007 0  0.7021551360070266 0.8921457280225779 0  0.5692125776683765 0.1328512638850284 0  0.5206162811937602 0.04865158770992991 0  0.6001838442201555 0.04540556991297563 0  0.2597716608242787 0.4118346398477178 0  0.4040584599473195 0.3179589136784675 0  0.1480337679295207 0.8941560631483065 0  0.1344356707112281 0.9466251177415842 0  0.7114696411829317 0.4983917389078826 0  0.7585704698442475 0.5751926345944629 0  0.2189131956390871 0.04022068508159698 0  0.2476935455192043 0.1123642267635843 0  0.185995005654517 0.1365524537205238 0  0.6223414373308711 0.643380839165121 0  0.5732602596637543 0.7190051747306219 0  0.268358222364537 0.6586246524467934 0  0.3265879848129173 0.2369791782191225 0  0.1267095595787346 0.7034787238999181 0  0.1115202922226038 0.6421997933884982 0  0.3128688392940203 0.07260997451790079 0  0.550724900485678 0.9253360991633187 0  0.7142608810459105 0.2384904702214873 0  0.7045869185243887 0.1871826897887429 0  0.890625 0.734375 0  0.953125 0.765625 0  0.2111812642821677 0.8286209446459138 0  0.9590293078204457 0.09375 0  0.953431269039847 0.1435719386408004 0  0.04097069217955424 0.90625 0  0.04656873096015299 0.8564280613591996 0  0.1078743037981226 0.8541621766048062 0  0.8921256962018773 0.1458378233951939 0  0.8521576979194619 0.1084496634207678 0  0.8655663982740958 0.05464346096571447 0  0.04005659640905543 0.09375 0  0.1001448316533417 0.04246776244228261 
[...]
<CellData  Scalars="f_8394-4"> 
<DataArray  type="Float64"  Name="f_8394-4"  format="ascii">7.6307745217244527e-01   4.0359930198777066e-01   4.8293091124006260e-01   2.4997193036992446e-01   6.3544644991124144e-01   3.8248838738686070e-01   7.7355205336702637e-01   9.0499349091618042e-01   8.0516317066364906e-01   6.5936792782111731e-01   4.9613809726482588e-01   1.0003831545387509e+00   1.0005524680379576e+00   9.9436865898656424e-01   9.9665477522357870e-01   9.5968309613125324e-01   9.8268051876667684e-01   7.7270960764638175e-01   8.5729024770453843e-01   7.2932441150283600e-01   6.8600861463396312e-01   9.4759137123389936e-01   9.5646677145595749e-01   8.6586064537602414e-01   7.5378413256474153e-01   9.2980779633384214e-01   1.0965531527710093e-01   7.8151313697450575e-01   9.0706592322240642e-01   6.7193344949671441e-01   9.1344105578398294e-01   9.2651820877152102e-01   8.0819151802178524e-01   9.9971048496371684e-01   5.4634875111733316e-01   6.1199580265933184e-01   8.2251341904744479e-01   8.9205418382928214e-01   6.9196438128940563e-01   7.4651524938441904e-01   7.3289157350466205e-01   8.2758644828674066e-01   9.8814220798950225e-01   9.9533093572264020e-01   3.9232143594959396e-01   9.9927976931768070e-01   9.8230493257760609e-01   2.7417662978908069e-01   9.8125802375132920e-01   9.9759065719466289e-01   9.9276516218747035e-01   9.7403156246435429e-01   7.2026203594827820e-01   5.8818114036225999e-01   6.3922337180616373e-01   9.9830856081252373e-01   9.6197318341607796e-01   6.9465221455351667e-01   5.0772530150010498e-01   8.3823818952379037e-01   8.7576536816481032e-01   7.7852943130073071e-01   3.7482111854101385e-01   6.7139757651286947e-01   5.8482105909029780e-01   9.1831841139681691e-01   8.5623180920670661e-01   8.2765110379120355e-01   8.9457831360778117e-01   9.9792499733772322e-01   9.9636837565087566e-01   9.9929780848986183e-01   4.6784712995319494e-01   8.6525464117577422e-01   9.6511958897987060e-01   9.5347815563866667e-01   9.8080432952967822e-01   9.3035751019134816e-01   9.3713463133921315e-01   7.0659900986358282e-01   6.6126806449656028e-01   6.6275331807523796e-01   7.1009564201932851e-01   9.2992174419231832e-01   9.1929582363346485e-01   7.9090821201995487e-01   8.7678644297493147e-01   9.4138301890794551e-01   9.1111198793795278e-01   8.1593728224694784e-01   7.0976084615111801e-01   7.9407255529394549e-01   2.8554230673849812e-01   3.0303123097136248e-01   4.2965639235066505e-01   4.5378431282302240e-01   4.9513301836381507e-01   9.9166910085187931e-01   9.9729707055067962e-01   5.7053764816027985e-01   5.3284039311362108e-01   6.9014996726192890e-01   6.1652427762522022e-01   9.5501890449666393e-01   9.3594310992076057e-01   9.2138151422233172e-01   8.9710726936206742e-01   8.0321604082099718e-01   7.2660474824468246e-01   8.1112511133361886e-01   8.3447203696855954e-01   8.7127832224578527e-01   8.9871547497888715e-01   7.6986045899656907e-01   7.4749778764642572e-01   8.1991087538592389e-01   8.1324008317130336e-01   9.3338086198169057e-01   9.9960647295584437e-01   9.9901080032093548e-01   9.7775958635247484e-01   9.9016034277638487e-01   7.3307973138601645e-01   8.3949107112904242e-01   5.8134597021970247e-01   5.9754772380365184e-01   9.8455449810267581e-01   9.9666307374147411e-01   9.7412692375875309e-01   9.0451781419960287e-01   9.2115231628501992e-01   9.2754623193490349e-01   9.9235572997155086e-01   9.8517713183244016e-01   9.4320160214777549e-01   9.7037865703376758e-01   9.5581780002297945e-01   9.0819280056068430e-01   7.6451725617055433e-01   8.3568010973914297e-01   4.2120568781267714e-01   3.6513729307439330e-01   4.0922014236396187e-01   3.2034299187303444e-01   6.2311351169402407e-01   5.8561826104041859e-01   1.0012113929993416e+00   9.8989752134311659e-01   9.9876470452885213e-01   1.0004716782624350e+00   8.0562251150622932e-01   7.5992141393471213e-01   4.6349092134891307e-01   4.0287994602522836e-01   5.0431288216722747e-01   7.3908312470922477e-01   7.1290534096553737e-01   6.6357421561944419e-01   7.1288770840896531e-01   7.3756381492871537e-01   6.5319613594030523e-01   8.0631537003046405e-01   8.5552702309469686e-01   9.7044616610443690e-01   9.5615911010671018e-01   1.0005135528040636e+00   9.9997191951838182e-01   9.4847973695603649e-01   8.7544997323458495e-01   5.6179682169536249e-01   5.6438883584250898e-01   9.4924589647581825e-01   9.6190935302604397e-01   9.5363679221033959e-01   9.7581866765014869e-01   8.5717368424402773e-01   8.6822192447871127e-01   8.0812061452071737e-01   7.1270718606936634e-01   9.6187820782614519e-01   9.6992302729394342e-01   4.9853997231936814e-01   4.8746385272626730e-01   9.9486518261302137e-01   1.0011732759387870e+00   1.0012121219393739e+00   1.0009632623151865e+00   7.5834100381478664e-01   5.3333997399753907e-01   5.2610666721149346e-01   9.6281228092194504e-01   9.7136124677279068e-01   7.8895999678852646e-01   7.7493476668222794e-01   6.7257573540944415e-01   7.1660924657781144e-01   6.8611118234764223e-01   7.3188881277683904e-01   9.4386314057303999e-01   9.0158813280418337e-01   8.7932687759529093e-01   9.1639489722726142e-01   3.0648327509839135e-01   4.8132732447883242e-01   9.0364473610857643e-01   9.1658172116275860e-01   7.2797347812583746e-01   6.5575266116310560e-01   4.6380872477767809e-01   5.5939394628805239e-01   5.6831042956409339e-01   5.1609154689408365e-01   4.5023121612652539e-01   4.8367445167112522e-01   4.1698781034570614e-01   1.0002359887525269e+00   9.9612971080440205e-01   1.0012168549582485e+00   9.6380694077270568e-01   9.9309308211227199e-01   7.3638311607388041e-01   7.5578606155768102e-01   8.8208799189831999e-01   9.1889638734459222e-01   8.4866314105163843e-01   7.2782243342651964e-01   2.8290997151946495e-01   2.5360887163249884e-01   9.9575766340764360e-01   9.8652507050831784e-01   6.4467365771562024e-01   6.5676010886858061e-01   8.7545364259652836e-01   8.2064566047020171e-01   8.7587279527881490e-01   9.2836580074802266e-01   8.5621087455956846e-01   8.0771424299633032e-01   6.4376318255809384e-01   9.2131761381743860e-01   8.8743049189563228e-01   9.7844876222535715e-01   9.7777657365669002e-01   9.4072391336109629e-01   9.6751970131515319e-01   9.6288577572444822e-01   8.6160114801215992e-01   8.2468423305616989e-01   8.7894022425455376e-01   4.5118306002182240e-01   5.5512974729965137e-01   4.9560812674072052e-01   4.6713804623628330e-01   6.4174193785995670e-01   6.9941170045529888e-01   3.0446951633934394e-01   3.4512001558602845e-01   3.5535211054762167e-01   4.2457811955719243e-01   9.8647260044911367e-01   9.9233705773059577e-01   7.9419763582973854e-02   8.4825456264920246e-02   1.3158795187532490e-01   9.9691162130450039e-01   9.9264599972737022e-01   5.4600117919041413e-01   4.8510301271340051e-01   4.8094078534483986e-01   6.3003843895385570e-01   6.9092799298099183e-01   6.8745281122729496e-01   7.0189671763600514e-01   7.5361489539075177e-01   9.1261292560624230e-01   9.4070395535727125e-01   8.7216606735394420e-01   8.8757725644358187e-01   9.9935091144239885e-01   9.9775294863980257e-01   9.8254178604007836e-01   9.3259102962800322e-01   8.7147614513534843e-01   9.0217871382382686e-01   9.9988225274690878e-01   9.7751656927119646e-01   9.9697524245064073e-01   9.5368021216243526e-01   9.5110073138594875e-01   9.7651810564182584e-01   8.0337702921782317e-01   9.0586680273434295e-01   8.9334514574800605e-01   5.9594557578346463e-01   5.1906088717139842e-01   2.1340099450412831e-01   2.7845783599493162e-01   6.1021274531115144e-01   6.6974836184021946e-01   7.1161905475670073e-01   7.5701075514359339e-01   7.7253555414850561e-01   9.9914240256144771e-01   9.8658342366735308e-01   9.9739599582752747e-01   9.8740590494644398e-01   6.0919650852403595e-01   9.4368781805558211e-01   9.5262550061189422e-01   9.5208120298990351e-01   9.6583159568295762e-01   8.8007245592139716e-01   8.1236231356052935e-01   7.3184209136641476e-01   7.1504307506269571e-01   8.4371899575135478e-01   8.4540793960477001e-01   9.2505153563715747e-01   9.3730680182407067e-01   1.8005079892982201e-01   2.4225103258434882e-01   2.5920544174115973e-01   9.8220469833951085e-01   9.7222831688445399e-01   9.5591462519649850e-01   9.5076394953892607e-01   9.4146081710723362e-01   9.0588215373542325e-01   9.8104394666754158e-01   9.9305193091010768e-01   9.9267388025622416e-01   9.8857912674751747e-01   3.7944530457227715e-01   4.8951080300179134e-01   8.0460261853238868e-01   8.6364587614193289e-01   8.6504536878170935e-01   8.8780132646248622e-01   7.3070073747720365e-01   7.1734521514172678e-01   1.0004210043982535e+00   9.9965486071061282e-01   8.3867438019733209e-01   8.2906158127245855e-01   9.2543835731509638e-01   9.1360698212675617e-01   8.8603682030862407e-01   9.2605030970417834e-01   9.2711019700742203e-01   8.8586038414415635e-01   8.3801996824538583e-01   9.9401051074440705e-01   9.9916406783801848e-01   9.9511338474483091e-01   9.9726830935235589e-01   7.8821081111360303e-01   6.7806414119805192e-01   4.6376478815842681e-01   3.4100722224874269e-01   8.8426062858774990e-01   8.8384611388390411e-01   7.8560621398157515e-01   8.0855070671149010e-01   9.9780482897448441e-01   9.8985575265856174e-01   9.6082045853219189e-01   9.6293675604510898e-01   9.6700737933808600e-01   9.9125771937065799e-01   9.7622325029473966e-01   9.7738125337890536e-01   7.9469805576333818e-01   7.2919544225948951e-01   7.9680331800277437e-01   7.8172898233927601e-01   9.9245698317115438e-01   9.9854789597272797e-01   9.6288803637008746e-01   9.7783686251320556e-01   9.7295551225061627e-01   9.7986962862938665e-01   6.5090617967576037e-01   6.9011328872554623e-01   8.8739969199290192e-01   8.6890276596673788e-01   8.0613273018840981e-01   8.1284312045668938e-01   8.6636249707240143e-01   8.5477924930744797e-01   9.8852544101116979e-01   9.7440618384681588e-01   7.4390755420859478e-01   7.2616962719630673e-01   9.7222503631954549e-01   9.5820100473193370e-01   1.0005675283772990e+00   9.9883764772227934e-01   9.9805859423747989e-01   8.7422595461739894e-01   8.9843435350760070e-01   5.2803888062687154e-01   5.1914903337622686e-01   7.8809986568337187e-01   8.3957370835478706e-01   8.3449085458251848e-01   8.5005687386060225e-01   2.4543903324818281e-01   3.5983393863258312e-01   2.4196033885829432e-01   2.0785505557977635e-01   8.3499395942639465e-01   8.3449495912896943e-01   9.5513251350152939e-01   9.3228379619380142e-01   8.6858271602912096e-01   8.7670531078835578e-01   9.3389051533400957e-01   9.1607423857146786e-01   4.1592381973259862e-01   4.3854903569278003e-01   1.0006438897538463e+00   1.0003919474073464e+00   5.9902953427683192e-01   5.7889969375971173e-01   6.1320725106498020e-01   6.1068311100623784e-01   5.5564194198779693e-01   6.3979983015386954e-01   6.1638637450073508e-01   6.2670733959144331e-01   8.5258141373289098e-01   8.3427895681472697e-01   8.9273673725229641e-01   8.8549769299435077e-01   9.2013488987420788e-01   9.6528737034314638e-01   9.6809960485035795e-01   9.7105207831790596e-01   3.0072460582695876e-01   2.8449891433151142e-01   2.7874687676130283e-01   3.8925527236084273e-01   3.3826815576212216e-01   3.4343021001022039e-01   9.4740835358111708e-01   9.5506090226632900e-01   9.8367709000496906e-01   9.6844220354129174e-01   8.3506773141504886e-01   7.7583413805933255e-01   5.7927575350634009e-01   4.9658722569761826e-01   7.0153656614358428e-01   7.4961899586946756e-01   6.9936216495061732e-01   6.8768345074885961e-01   4.2623995515891983e-01   3.7921682806235146e-01   9.9673629401715480e-01   9.9612096832843411e-01   8.4316411509418809e-01   8.1539709652065118e-01   8.3725104765198466e-01   8.3017516126134383e-01   9.9950166875462465e-01   1.0012235206953097e+00   9.7780394414456262e-01   9.9248630694795359e-01   8.5161589593133036e-01   8.2530740476295839e-01   8.8079617338419081e-01   8.3564791596394472e-01   9.2988812018554345e-01   7.9940362629119210e-01   8.2716335013771503e-01   7.6211797664486414e-01   8.2253956488811908e-01   8.0788996368109289e-01   9.0898840380496726e-01   8.6583072397331740e-01   8.1399625893760286e-01   8.1310631528384070e-01   7.8350678378667349e-01   8.5678849175449145e-01   2.2576438314032798e-01   2.1827609547161259e-01   1.6334959656369930e-01   1.3366871272136477e-01   8.2188988943815733e-01   8.5315574344753353e-01   8.3454107524459709e-01   9.6719392982327879e-01   9.4278903909959888e-01   7.6899932726408937e-01   6.7420545881314708e-01   7.2088392780622101e-01   6.1805427158836268e-01   5.5521298488292159e-01   5.0565466704762785e-01   6.6689404109121886e-01   6.2233602560859791e-01   7.7713216852549216e-01   7.9702424783866899e-01   9.4132971324924963e-01   9.2739332305568178e-01   7.3049169453106255e-01   6.6940848575722212e-01   2.0451510255560909e-01   2.6068805045990651e-01   9.2785107625653618e-01   7.3189848956385573e-01   7.1254274842572807e-01   9.6479781731805458e-01   9.2473538029454350e-01   9.8469604437875136e-01   9.6460237627978318e-01   7.9252545062172786e-01   8.4989597761518754e-01   8.1754202858544334e-01   8.4575548005823920e-01   8.3492337561789420e-01   8.2151220248945267e-01   9.9947517307728573e-01   9.9802531436290598e-01   7.5643472766283837e-01   7.3622466820522381e-01   8.9842256395698972e-01   9.1376706069668923e-01   7.4455736642204196e-01   7.6564027312744143e-01   5.1830090713144061e-01   5.4478128254196123e-01   9.1628016523805023e-01   8.9932579647521482e-01   8.0099816977116312e-01   8.6286827155057533e-01   8.7466964375484346e-01   9.3770581376508721e-01   3.5744717411893101e-01   3.7513286045333488e-01   9.7203036432250678e-01   9.7056296584934898e-01   9.7182316977859273e-01   9.5538591979438037e-01   4.8460179470760523e-01   5.2978966016920737e-01   9.8470027135711313e-01   9.8084968666540118e-01   3.5489875198919946e-01   2.9931177778446416e-01   6.3025725834904789e-01   6.5480660211241970e-01   6.4598188111673138e-01   6.9194109045532237e-01   9.9933987228030341e-01   1.0010925598796632e+00   1.0011893075623843e+00   9.9873885911139682e-01   9.7755159835869854e-01   9.7276751169476805e-01   8.1598618554059010e-01   8.1617524818681675e-01   8.7674678417653162e-01   9.1886864584215577e-01   9.2242697402698182e-01   9.2098436775120807e-01   9.8777325157011686e-01   6.3201702787496916e-01   5.9489556402615318e-01   4.9837143225319452e-01   5.7518738533104896e-01   1.0009481743222122e+00   9.9249101460650957e-01   9.9574835602649781e-01   6.9229679630925234e-01   7.2120287655742255e-01   6.2602881327187743e-01   6.1378038853989803e-01   8.3418866858672935e-01   8.6170733607431571e-01   1.0008513168804944e+00   1.0012182763982034e+00   6.9402498252375278e-01   6.8595241081269920e-01   1.0011167499723259e+00   9.9839826322047986e-01   9.9647250173632507e-01   9.9872098209627469e-01   8.8060449126638940e-01   8.7041026272466926e-01   9.5451420398652376e-01   9.5602888576376055e-01   8.1801346038428147e-01   8.0371343762017589e-01   3.2834511368403979e-01   3.9581618110774291e-01   3.2835783702571109e-01   3.4538440707842410e-01   4.9036551299140296e-01   4.5243316277707341e-01   6.6569561622176099e-01   4.7086140502495605e-01   9.9849630949032286e-01   9.9702876409929464e-01   9.9492357679307508e-01   9.8149093038486690e-01   1.0006174221256308e+00   9.8456007301198989e-01   9.7793123287056005e-01   9.9857882359242356e-01   9.9186241466086078e-01   7.0574666807765263e-01   6.7107319061748649e-01   9.6947192741882970e-01   9.6684762743225061e-01   1.0010968885018008e+00   1.0011062230747958e+00   8.5073932583926426e-01   8.8639718819463331e-01   5.5188666328927061e-01   5.6957460758970302e-01   9.8125268776822216e-01   9.9349180835556838e-01   9.4730731396301682e-01   9.2475291642850055e-01   7.4024632557160985e-01   7.6604562088601369e-01   1.8418526372320204e-01   2.3588794031289664e-01   7.8196736548506995e-01   7.9279393149420763e-01   9.9938672992867172e-01   5.5224174472668663e-01   5.4807579069246282e-01   6.4062674816702314e-01   5.8507777169788600e-01   6.2772705034965570e-01   6.2312717544567653e-01   6.2309099303740989e-01   6.5313905904037772e-01   8.6475351668153477e-01   9.1891408921869544e-01   9.5255083762537562e-01   9.5228495057961304e-01   9.2259424619827946e-01   9.1806942699944161e-01   8.7704360830567984e-01   8.9288649309306944e-01   9.4927446073028521e-01   9.5008858823559683e-01   8.0826803384966062e-01   8.0534433467086597e-01   4.9253743020271784e-01   4.4265590020782419e-01   6.5302834621945738e-01   6.5404070420228044e-01   6.9932385039742662e-01   6.7658950739977630e-01   7.5123816624109707e-01   7.1239981718040335e-01   9.5085988032930191e-01   9.5772499238893194e-01   4.8397550162900099e-01   4.3930095693936838e-01   6.8355030581963305e-01   6.6726065547295454e-01   9.9867951662769627e-01   9.9695619215827935e-01   9.3258279137116795e-01   9.0659413932285959e-01   9.9824968128196512e-01   1.0010617864385198e+00   1.6727690583952856e-01   2.6167651266554082e-01   4.4026968989163373e-01   9.3251564661233466e-01   9.5592426972868649e-01   9.5089056539647743e-01   9.3423067395732406e-01   8.8396190150724852e-01   9.0979426053327450e-01   9.8139709705520728e-01   9.8329333060751811e-01   9.9833591050848358e-01   7.4620772679253178e-01   7.1774117174139596e-01   4.8839352934149138e-01   4.9994505313735399e-01   8.0246929817661616e-01   8.2065198692943497e-01   8.2991925755998253e-01   7.8112980745273708e-01   7.1418684894143503e-01   6.7199804528057872e-01   4.3513000416633091e-01   4.7170956089434152e-01   9.3263075732087486e-01   9.4606819738938441e-01   4.3018074749003499e-01   4.2288961385584556e-01   7.4121753068659335e-01   7.9668725606332746e-01   6.5335601106289587e-01   6.2512142242864110e-01   9.4225476876553538e-01   9.3333626070998399e-01   4.2434083723795207e-01   3.9433242123268009e-01   8.1667872020517940e-01   8.5100670765154041e-01   7.9375283156617971e-01   7.9844922906322802e-01   9.3283791618173262e-01   9.3819935448675817e-01   7.1206820379004299e-01   7.4138336265592775e-01   6.4358085649076358e-01   6.4148637052817925e-01   9.8921537342509835e-01   9.9430210544014697e-01   1.0009545396895414e+00   1.0011616818784610e+00   6.4413016155111225e-01   5.9971652602566494e-01   6.9926702312943156e-01   6.8587084446467905e-01   8.3062677203494151e-01   8.0541873841780465e-01   9.7950008609773165e-01   9.8982065028615107e-01   9.8379105505145514e-01   9.8550511289374199e-01   1.0008807502835684e+00   1.0011594957799226e+00   9.9923715569525817e-01   9.8819865186603129e-01   2.3811345162913794e-01   2.9464159842037896e-01   8.7452518074675456e-01   8.5897412201710055e-01   8.7788130426534927e-01   8.5970576013195110e-01   9.3450861583597578e-01   9.4378434459880944e-01   9.6444396711273483e-01   9.7634588463798111e-01   6.2279327038959931e-01   5.9150239260651061e-01   9.2464896011888242e-01   8.9008476798193847e-01   5.5854989395556143e-01   5.4756645683797589e-01   3.6143846455783690e-01   2.9025197838966099e-01   9.1170485061846529e-01   9.0230765585967854e-01   6.8329107964565405e-01   7.5257395532162463e-01   6.7497783359843255e-01   7.1656518429679006e-01   7.1662856092148186e-01   7.1903900242241725e-01   7.3134444222657280e-01   7.3136651944879694e-01   9.5095965407457483e-01   9.4379406241162056e-01   6.1732449351033847e-01   6.5352783351516663e-01   9.7122718678538567e-01   9.7205610188807312e-01   7.4476507801945713e-01   7.6675210858493348e-01   4.6774889858780672e-01   5.1991108123421026e-01   8.0847621047457219e-01   7.9806589041653297e-01   9.3165195199868800e-01   9.3827810099649878e-01   5.1616531085035566e-01   4.5321168488746694e-01   9.9163682991992530e-01   9.9013789503377692e-01   8.0157550946493050e-01   7.7649141079392781e-01   9.9065506623822563e-01   9.9197236019738788e-01   9.5619691825552933e-01   9.5250194485199524e-01   9.8644302930395811e-01   9.8821371326368368e-01   4.5696753863336137e-01   4.3422264884627576e-01   8.2964117273160098e-01   8.2051523572510110e-01   3.5525918966857106e-01   7.1705473538481035e-01   7.497098