<?xml version="1.0"?>
<VTKFile type="UnstructuredGrid"  version="0.1"  >
<UnstructuredGrid>
<Piece  NumberOfPoints="1385" NumberOfCells="2640">
<Points>
<DataArray  type="Float64"  NumberOfComponents="3"  format="ascii">0 0 0  1 0 0  1 1 0  0 1 0  0.5 0 0  1 0.5 0  0.5 1 0  0 0.5 0  0.5 0.5 0  0 0.25 0  0.25 0 0  0.25 1 0  0 0.75 0  1 0.25 0  0.75 0 0  1 0.75 0  0.75 1 0  0.7083333333333333 0.2916666666666667 0  0.2916666666666666 0.7083333333333334 0  0.375 0.25 0  0.75 0.625 0  0.2569444444444444 0.4652777777777778 0  0.5366379310344828 0.7535919540229885 0  0.1875 0.1875 0  0.8125 0.8125 0  0.869047619047619 0.375 0  0.1450441919191919 0.6052714646464646 0  0.375 0.8690476190476191 0  0.5526960784313725 0.1825980392156862 0  0.8385416666666666 0.1614583333333334 0  0.1614583333333333 0.8385416666666667 0  0.6736111111111112 0.4652777777777778 0  0.1367521367521368 0.3477564102564102 0  0.6570970491253563 0.8648656830417855 0  0.5102479397556124 0.3386260301221938 0  0.3654513888888889 0.5737847222222222 0  0.6929750044954185 0.1362784921584263 0  0.388576102743835 0.411911725237599 0  0.6091269841269842 0.5942460317460317 0  0.875 0.6875 0  0.427278890279516 0.119889445139758 0  0.8544456845238095 0.5213913690476191 0  0.125 0 0  0 0.125 0  1 0.875 0  0.875 1 0  0.1280008648150532 0.4769292340226777 0  0.2695382451711197 0.3321750950221553 0  0.7031567235715964 0.7447810921428012 0  0.625 0 0  0.375 0 0  0.125 1 0  0.875 0 0  0 0.375 0  0 0.625 0  1 0.375 0  0.375 1 0  1 0.125 0  0 0.875 0  0.625 1 0  1 0.625 0  0.2979288363930608 0.1201429454643536 0  0.410919540229885 0.7484605911330049 0  0.5325041980395562 0.878905151526474 0  0.4831670727569156 0.6331060043826487 0  0.1735997378973042 0.7204747378973043 0  0.2534919507575758 0.5772372159090909 0  0.2633928571428572 0.8876488095238095 0  0.8199404761904761 0.2730654761904762 0  0.75830270586982 0.3919383189517417 0  0.5750282248382511 0.4237522353023667 0  0.6008360210023379 0.2794828358598495 0  0.08163442644334186 0.6821295860397322 0  0.08333333333333333 0.1875 0  0.2028380815996574 0.08844602719988583 0  0.2766521142611967 0.2325436572164097 0  0.90625 0.78125 0  0.890625 0.890625 0  0.7545696325008384 0.8973565441669461 0  0.5625 0.08086590340834317 0  0.09077380952380953 0.09077380952380952 0  0.4610923478694773 0.209034015149656 0  0.7542527598351648 0.5248380520595106 0  0.6459235536037465 0.3619913988405765 0  0.7560381768882634 0.20506142233852 0  0.07073252688172042 0.8125 0  0.0924753097241701 0.9078102849914793 0  0.9292674731182795 0.1875 0  0.9075246902758297 0.09218971500852073 0  0.8125 0.07073252688172045 0  0.2400955776842301 0.7869705776842302 0  0.9121050213379069 0.2781978201831695 0  0.7916878157143976 0.7239689078571988 0  0.9345238095238094 0.4375 0  0.4375 0.9345238095238095 0  0.3725616989755203 0.6651895248862173 0  0.06536271996350887 0.5625 0  0.9348362560379583 0.5625 0  0.456646798987055 0.8277247094351965 0  0.1875 0.9355758238725954 0  0.6169761231634859 0.6939779188977889 0  0.6226854751147515 0.7827911461419014 0  0.3305695598137626 0.7901697871282585 0  0.5865305325818898 0.5101085479043448 0  0.6622701297028378 0.2177663989757395 0  0.1354166666666667 0.2591702279202279 0  0 0.3125 0  0.2094429575680048 0.3936361846162499 0  0.836666296419157 0.607917407161686 0  0.6875 1 0  0.214261555450504 0.6492551722020035 0  0 0.4375 0  0.07731537126068377 0.40625 0  0.3427725432967068 0.4879566233699599 0  0.3550792513951871 0.3331953632609953 0  0.4462473953896857 0.2887834789342508 0  0.4747801464819794 0.417386052030127 0  0.8229836475148948 0.4443292349237342 0  0.7322605135514757 0.8199240278289671 0  0.6756431877205955 0.5468989748126787 0  0.1968419507215863 0.5194573482612496 0  0.3285590277777778 0.9345238095238095 0  0.8125 1 0  0.4198917601920009 0.5134893045331258 0  0.5232405503206691 0.2595791787880157 0  1 0.9375 0  0.1987510870015086 0.3025185951894431 0  0.5625 1 0  0.6005390654136388 0.9228110509230952 0  0.6411254848194414 0.07704872765442942 0  0.3357233162523242 0.1855113224530532 0  0.6730653396610877 0.6393887462324165 0  0.310966987234063 0.6240019765311626 0  0.7368737836204349 0.07457755202327881 0  0.6192316414418171 0.1485238406378594 0  0.5432429670607106 0.678552703844006 0  0.4754371679695679 0.7103946803120881 0  0.07501324890749672 0.3043839897335739 0  0.5358146975860403 0.5688321463205916 0  0.3115271739500156 0.3982137365971444 0  0.3625191397122174 0.0767854603650549 0  0.5024029442563831 0.1264128223758444 0  0.4375 0 0  0.4699946908887376 0.06379961173775725 0  0.9375 0.71875 0  0.9272105898044465 0.635671179608893 0  0.9375 1 0  0.6690971819568612 0.9331530898202766 0  0.1073454944778885 0.7499206387638554 0  0.8699082999280406 0.2232403652524313 0  0.5773118091863964 0.3548027349159383 0  0.1354166666666667 0.1428571428571428 0  0.3125 0 0  0.8241684193077341 0.9257452995055244 0  0.4352314948354036 0.3586940847489378 0  0.4351301473778832 0.5819726043539077 0  0.8073232928518163 0.3419398170341962 0  0.7775949246947366 0.1298519409204575 0  0.6875 0 0  0.7413513991851041 0.457933324954483 0  0.939453125 0.841796875 0  0.5630355154606987 0.8171875156478349 0  0.9345238095238095 0.3461466592368577 0  0.9375 0 0  1 0.0625 0  0.0625 1 0  0 0.9375 0  0.06552178593177167 0.4969053669623468 0  0.1424866619031703 0.4130277709291224 0  0.1275287182444726 0.5422946908002588 0  0.2637686595586339 0.06413888464529549 0  0.2524263535491086 0.1697437503243817 0  0.7367218397988525 0.6888573970660841 0  0.0625 0 0  0 0.0625 0  0.8463594539285995 0.7578283617857982 0  0.3128751192101563 0.2851997374369947 0  0.4015281788351144 0.1806421385113692 0  0.1910251795116588 0.4553332197174453 0  0.287797471442006 0.5222621440543902 0  0.3962628745986055 0.8097380085535307 0  0.3505895299554843 0.7304878890838692 0  0.5019151500495276 0.9356042615328103 0  0.9374389419410134 0.4999931039076005 0  0.3125 1 0  0.1875 1 0  1 0.5625 0  0.4375 1 0  1 0.3125 0  1 0.4375 0  0.8125 0 0  1 0.1875 0  0.5625 0 0  0.1875 0 0  0 0.1875 0  0 0.5625 0  0 0.6875 0  0 0.8125 0  1 0.6875 0  1 0.8125 0  0.8021696218581627 0.6612893947866073 0  0.06154922295426143 0.6239401126946708 0  0.9359375 0.9359375 0  0.4666158024849896 0.7691515918155014 0  0.2318201265217025 0.7064974250277525 0  0.1565954253579966 0.6635489312486841 0  0.1598132503680848 0.7787147500325552 0  0.3146529991605639 0.8510876378205265 0  0.1461873209418733 0.05982804528877814 0  0.06109554988524315 0.2446551776247686 0  0.8054950308560754 0.5564226538848541 0  0.470541749491976 0.8853316336952531 0  0.6948472567465137 0.4042308563372457 0  0.8802828472348889 0.4658893256343853 0  0.6788075634946739 0.7974194205806069 0  0.2155048659603867 0.2428201584940968 0  0.8131223143423806 0.2132171049028394 0  0.4330798005432235 0.6671274900735726 0  0.6015279126162613 0.2187368078743274 0  0.8061636571464289 0.8703766630361714 0  0.7008230445061776 0.3478568388444072 0  0.8638466246958771 0.3147095987735538 0  0.204801534004265 0.8789209409594009 0  0.2449006736431132 0.9424182882803838 0  0.7611268409371427 0.2643056884799992 0  0.7552800864046191 0.7678006649959446 0  0.5983639638906616 0.864113435029236 0  0.1956559506814437 0.577281203577426 0  0.3527670268164207 0.1320469097565204 0  0.7530364577483248 0.3262386077083089 0  0.4535919187979363 0.4690107087451527 0  0.8824869791666666 0.8336588541666666 0  0.8814453125 0.9451171875 0  0.5582987942628019 0.622421666543858 0  0.6817532446064828 0.6939001801354731 0  0.3830295138888889 0.9450968952922078 0  0.4140603937012541 0.05211333372716105 0  0.5535864501303013 0.3060591985391672 0  0.6560130086346878 0.2729726562211558 0  0.890203140221684 0.5948314305427268 0  0.7043857725999024 0.593980890020804 0  0.5105843922695152 0.8016828014338627 0  0.05365910753708378 0.7315110031682004 0  0.616904573672261 0.4621186633436136 0  0.5338511646455415 0.387875898899613 0  0.5231769258947843 0.4477682463140762 0  0.650302973237622 0.7370722302085519 0  0.3927483139621257 0.4662414504529014 0  0.8034595960585199 0.4972538342758211 0  0.7738337841682438 0.9496376207663251 0  0.7193737507158268 0.954685447650112 0  0.482525916480686 0.5528257169991676 0  0.2533501157346781 0.2809495420003238 0  0.3118487924482243 0.5702930126570319 0  0.6257598847669529 0.4104163315430518 0  0.1354166666666667 0.1955605158730158 0  0.04166666666666666 0.15625 0  0.3956448985530264 0.6174149462065157 0  0.8102897701818546 0.3938784238208349 0  0.2641154190013625 0.8344469561943118 0  0.642852220770013 0.5068794586563659 0  0.05271458179508221 0.355846947336007 0  0.7021551360070266 0.8921457280225779 0  0.5692125776683765 0.1328512638850284 0  0.5206162811937602 0.04865158770992991 0  0.6001838442201555 0.04540556991297563 0  0.2597716608242787 0.4118346398477178 0  0.4040584599473195 0.3179589136784675 0  0.1480337679295207 0.8941560631483065 0  0.1344356707112281 0.9466251177415842 0  0.7114696411829317 0.4983917389078826 0  0.7585704698442475 0.5751926345944629 0  0.2189131956390871 0.04022068508159698 0  0.2476935455192043 0.1123642267635843 0  0.185995005654517 0.1365524537205238 0  0.6223414373308711 0.643380839165121 0  0.5732602596637543 0.7190051747306219 0  0.268358222364537 0.6586246524467934 0  0.3265879848129173 0.2369791782191225 0  0.1267095595787346 0.7034787238999181 0  0.1115202922226038 0.6421997933884982 0  0.3128688392940203 0.07260997451790079 0  0.550724900485678 0.9253360991633187 0  0.7142608810459105 0.2384904702214873 0  0.7045869185243887 0.1871826897887429 0  0.890625 0.734375 0  0.953125 0.765625 0  0.2111812642821677 0.8286209446459138 0  0.9590293078204457 0.09375 0  0.953431269039847 0.1435719386408004 0  0.04097069217955424 0.90625 0  0.04656873096015299 0.8564280613591996 0  0.1078743037981226 0.8541621766048062 0  0.8921256962018773 0.1458378233951939 0  0.8521576979194619 0.1084496634207678 0  0.8655663982740958 0.05464346096571447 0  0.04005659640905543 0.09375 0  0.1001448316533417 0.04246776244228261 
[...]
<PointData  Vectors="f_8794-0"> 
<DataArray  type="Float64"  Name="f_8794-0"  NumberOfComponents="3" format="ascii">7.0220069369556926e-03 3.1692687990197560e-03 0.0000000000000000e+00  2.6836742167668255e-04 -3.1130221510617317e-04 0.0000000000000000e+00  2.3342329815929192e-03 1.9915587530587846e-04 0.0000000000000000e+00  4.1519100210610626e-03 3.2468824763568502e-04 0.0000000000000000e+00  2.0555903792415079e-03 -4.9951957012042232e-03 0.0000000000000000e+00  -2.4897002938958999e-04 1.6371405149124058e-04 0.0000000000000000e+00  4.1039571187545656e-04 -2.1689246698643948e-04 0.0000000000000000e+00  3.0362391682326505e-03 -1.2948624771573589e-03 0.0000000000000000e+00  -8.0792131574437820e-04 -5.1826946823342731e-04 0.0000000000000000e+00  7.1676942751385427e-03 3.5434047918329274e-04 0.0000000000000000e+00  2.5754032479825190e-03 -2.7801635818263306e-03 0.0000000000000000e+00  -7.0004130898384273e-04 1.6429209915321647e-03 0.0000000000000000e+00  6.5123400317232943e-03 -1.1727889007253896e-03 0.0000000000000000e+00  -1.3178171663609378e-03 4.8644960741933593e-04 0.0000000000000000e+00  -2.5863718118276046e-04 1.5571081333045271e-03 0.0000000000000000e+00  1.3438972532266997e-03 -1.6129748431374256e-04 0.0000000000000000e+00  1.0858250795396001e-03 -3.9933723908436389e-04 0.0000000000000000e+00  5.0110330853095266e-04 -1.0418922830056599e-03 0.0000000000000000e+00  9.7880276114856450e-04 -4.8407235749834771e-04 0.0000000000000000e+00  -1.6559853612888096e-03 1.8476325503940625e-03 0.0000000000000000e+00  8.9843345597814914e-04 5.2175482226878727e-04 0.0000000000000000e+00  1.8619378044695744e-03 -2.0817232173648247e-03 0.0000000000000000e+00  7.9066174128989211e-04 6.2018656186948237e-04 0.0000000000000000e+00  -1.7913408634796461e-03 -3.1209086506659286e-03 0.0000000000000000e+00  3.5230414487739530e-04 -1.6706344182115863e-04 0.0000000000000000e+00  1.5368119760170739e-03 1.0600928168794837e-04 0.0000000000000000e+00  -1.5205533253983775e-03 1.1480229098049521e-03 0.0000000000000000e+00  2.4358191407946889e-03 8.6189101608129812e-05 0.0000000000000000e+00  2.9482354120534439e-03 7.5122372956888033e-04 0.0000000000000000e+00  -1.0534644745762314e-03 2.8079184957456761e-04 0.0000000000000000e+00  -1.2211013509748126e-03 -2.4270375146177845e-04 0.0000000000000000e+00  -5.4331337480203936e-04 -1.6658150827204676e-03 0.0000000000000000e+00  -1.6417591283109290e-03 5.5416610315270787e-04 0.0000000000000000e+00  4.2909813204337785e-04 -1.2632829689217815e-04 0.0000000000000000e+00  -1.5719905271741226e-03 -1.5698431040357935e-03 0.0000000000000000e+00  4.8936073263641956e-03 2.9054152721951225e-05 0.0000000000000000e+00  -5.0949780381420633e-03 -1.5638523288882833e-04 0.0000000000000000e+00  1.3225472083003703e-03 2.2648364131792960e-03 0.0000000000000000e+00  -4.1449612095454113e-04 1.2742035361754213e-03 0.0000000000000000e+00  3.0767017004882004e-04 1.6769164754881587e-05 0.0000000000000000e+00  1.1322787707093598e-03 -2.4632980137397390e-03 0.0000000000000000e+00  9.7016681838631310e-04 1.3352340264100098e-05 0.0000000000000000e+00  2.3485790915404002e-03 -1.7879450687711229e-03 0.0000000000000000e+00  5.4622060849811478e-03 -2.6424598111010685e-03 0.0000000000000000e+00  2.1163469325724440e-03 -2.9020283597187607e-04 0.0000000000000000e+00  6.2756892873359904e-04 -1.5152859705709217e-03 0.0000000000000000e+00  1.3685624995890353e-03 -6.6296276886586086e-04 0.0000000000000000e+00  5.8585397846401613e-03 3.0024394129521431e-04 0.0000000000000000e+00  1.0024126489563260e-04 2.2035011131931728e-04 0.0000000000000000e+00  4.0789966772951190e-03 -9.7283120040767869e-04 0.0000000000000000e+00  2.0787958553842838e-03 -2.0601963098981833e-04 0.0000000000000000e+00  -1.0276712371681588e-03 7.7947776926782174e-04 0.0000000000000000e+00  1.8886040671348046e-03 -5.9477993385770355e-04 0.0000000000000000e+00  7.0552390772687223e-03 -4.5707419901669442e-04 0.0000000000000000e+00  6.8755253323898730e-03 6.5191766992014639e-05 0.0000000000000000e+00  -1.1001728905870095e-03 2.5746168178444927e-04 0.0000000000000000e+00  -3.2729498927149773e-04 -1.0975566664845295e-04 0.0000000000000000e+00  -8.3750258183283501e-04 8.2551017043407918e-04 0.0000000000000000e+00  2.5523849844299503e-03 -1.0171920649326026e-03 0.0000000000000000e+00  5.8639305849499557e-04 -6.3387140994147450e-05 0.0000000000000000e+00  4.7261165688473807e-04 -8.6426149179759571e-05 0.0000000000000000e+00  -6.9424788268170642e-04 -1.0962234238543311e-03 0.0000000000000000e+00  -1.1684146650378705e-03 1.1293441295262721e-03 0.0000000000000000e+00  1.3577156625276438e-04 1.9657465307922468e-04 0.0000000000000000e+00  -5.9507906352553302e-04 8.6647990213836647e-04 0.0000000000000000e+00  6.7954936163856403e-04 -1.9553942989483401e-03 0.0000000000000000e+00  1.5864501935622369e-03 7.3196550353389514e-04 0.0000000000000000e+00  3.9506608938258457e-06 2.5042240280673028e-04 0.0000000000000000e+00  -2.9058087391786959e-03 1.2274229630977350e-04 0.0000000000000000e+00  -1.2151892434476212e-03 -1.0925768047430080e-03 0.0000000000000000e+00  -1.3470214284168387e-04 -9.7964227955860757e-04 0.0000000000000000e+00  5.3005894793704510e-03 6.6229800475418020e-04 0.0000000000000000e+00  -9.3813195406046218e-04 7.8998842181809319e-04 0.0000000000000000e+00  -3.7100302250916289e-03 -1.4168851215204262e-03 0.0000000000000000e+00  -5.5962230912899738e-03 1.5221131874577582e-03 0.0000000000000000e+00  3.8495244673644232e-03 -1.4262747312908100e-03 0.0000000000000000e+00  7.0652030822534019e-04 -4.0248870582231119e-04 0.0000000000000000e+00  4.6529016478543284e-04 2.8860331222926902e-06 0.0000000000000000e+00  4.5351024699432496e-04 -4.5152094369004827e-04 0.0000000000000000e+00  -3.2061390951830943e-03 -1.2235703050447028e-04 0.0000000000000000e+00  3.7970905386664256e-03 -2.1645689278148358e-03 0.0000000000000000e+00  -4.0568895649290664e-03 7.2268677588563889e-04 0.0000000000000000e+00  7.2014073594571786e-04 -7.2657070043145958e-05 0.0000000000000000e+00  -3.2563578049499449e-04 -3.1923313089467627e-05 0.0000000000000000e+00  1.3892104086861785e-03 1.0585672170864836e-03 0.0000000000000000e+00  2.6067110274730202e-03 5.9492062579869854e-04 0.0000000000000000e+00  1.7172187801079404e-03 3.4596480319843103e-04 0.0000000000000000e+00  2.6032975888854787e-03 -8.2908409122260510e-04 0.0000000000000000e+00  -1.8517874225057252e-03 6.3914034611782316e-04 0.0000000000000000e+00  1.4610682095098266e-03 -1.5427105944688822e-03 0.0000000000000000e+00  -8.8913006199837835e-04 8.0807053504992378e-04 0.0000000000000000e+00  1.2250621758285467e-03 6.1849217638521817e-04 0.0000000000000000e+00  5.4903631268406325e-04 -1.3633278016548432e-05 0.0000000000000000e+00  1.2537675035875098e-03 -2.7490308369721122e-04 0.0000000000000000e+00  1.2485845316665767e-03 9.0464128298349327e-05 0.0000000000000000e+00  -2.2867762972698081e-03 -9.2072260610222403e-05 0.0000000000000000e+00  -1.7352076645941097e-03 3.1615110425294063e-03 0.0000000000000000e+00  8.2836906217685061e-04 3.0419348630827466e-05 0.0000000000000000e+00  1.4207638478860797e-03 -1.2361974718955999e-03 0.0000000000000000e+00  -9.0418288897453625e-04 5.9419581265023709e-04 0.0000000000000000e+00  1.4851616745086195e-04 -6.2874647126465535e-04 0.0000000000000000e+00  4.7728044849827092e-04 2.7513420712810624e-04 0.0000000000000000e+00  2.7918720265855657e-04 -3.8069276278722489e-03 0.0000000000000000e+00  1.6590600548562120e-03 -7.8849775339318246e-04 0.0000000000000000e+00  -1.2595234761905295e-03 2.6247442070954329e-03 0.0000000000000000e+00  -1.8351247544893942e-03 -1.5192617492223929e-03 0.0000000000000000e+00  9.6811537463405725e-04 -1.6197305473718026e-03 0.0000000000000000e+00  -5.7526685804556744e-05 -1.3222179930781626e-03 0.0000000000000000e+00  -1.0389292730552185e-04 2.5464515313851431e-04 0.0000000000000000e+00  5.6103522747703416e-04 -2.6950043468912112e-04 0.0000000000000000e+00  -1.3762828713321140e-04 1.2246821860121240e-03 0.0000000000000000e+00  4.3468743316104428e-03 -1.9425889311874790e-03 0.0000000000000000e+00  -1.3408661664201218e-03 2.2125945214684759e-04 0.0000000000000000e+00  -3.3448782897560403e-03 -1.0856349589143373e-03 0.0000000000000000e+00  -1.4376645340146354e-03 -1.7354585027370942e-03 0.0000000000000000e+00  2.0801094129095643e-03 1.4886825405307702e-03 0.0000000000000000e+00  2.1881095104012149e-04 -2.6082002766060122e-03 0.0000000000000000e+00  -8.4189668124718330e-04 6.1630227664220025e-04 0.0000000000000000e+00  4.0320943324874642e-04 1.8075737962072180e-05 0.0000000000000000e+00  -5.8219126695096938e-06 -9.3619846353153614e-04 0.0000000000000000e+00  -4.0323733999051850e-03 -6.2572905353665081e-04 0.0000000000000000e+00  -5.2938297173901641e-04 5.5953730712694750e-05 0.0000000000000000e+00  1.9065335731339426e-03 -1.0064968750511548e-03 0.0000000000000000e+00  2.8688845020606972e-03 -7.3557763588311276e-03 0.0000000000000000e+00  -2.0895817260621749e-03 1.5007010413722521e-03 0.0000000000000000e+00  2.7352780981952408e-03 4.5615487368163611e-05 0.0000000000000000e+00  1.9136153234181885e-03 -9.3642532418659647e-04 0.0000000000000000e+00  2.9225584839591103e-04 3.6248749083568784e-05 0.0000000000000000e+00  6.0696277348357293e-04 -4.9157221185686497e-05 0.0000000000000000e+00  2.2511188397378477e-03 -2.1478968484194903e-03 0.0000000000000000e+00  4.7100036587401275e-03 7.3282190827643609e-04 0.0000000000000000e+00  1.2741384792309895e-03 -1.2738515694198587e-04 0.0000000000000000e+00  -3.0010009433579159e-03 4.7288613557836033e-04 0.0000000000000000e+00  4.0589807187537581e-03 -2.8199456083868369e-04 0.0000000000000000e+00  2.6632771853419479e-03 -1.9354426008382859e-03 0.0000000000000000e+00  1.5148748007175377e-03 -7.3076096578647489e-04 0.0000000000000000e+00  1.8551924686863648e-03 -8.3232565325635794e-04 0.0000000000000000e+00  -2.0782992793189313e-03 -1.5496800140148528e-04 0.0000000000000000e+00  1.6596965958993052e-03 -2.6281397206647905e-04 0.0000000000000000e+00  1.4757958193681560e-03 -2.0907505164830266e-03 0.0000000000000000e+00  2.6702717606127469e-04 3.1028073854285120e-03 0.0000000000000000e+00  -1.6189446712463152e-03 -1.0633354844942519e-03 0.0000000000000000e+00  1.9594733504897646e-03 -5.6860795049266933e-04 0.0000000000000000e+00  -4.0064449335724820e-04 3.4273078709442508e-04 0.0000000000000000e+00  7.9885078760302396e-04 -5.5960724024690733e-05 0.0000000000000000e+00  3.7468418968456517e-04 -1.0776894393481578e-05 0.0000000000000000e+00  1.5280361448246572e-03 3.0658525650154104e-04 0.0000000000000000e+00  2.4798113578935815e-04 8.5295966587257651e-05 0.0000000000000000e+00  -2.9886093655604388e-03 8.8413861831903532e-04 0.0000000000000000e+00  -5.2136714827861693e-04 3.6522407188876701e-04 0.0000000000000000e+00  4.6795597155067474e-03 -7.3653613364135003e-04 0.0000000000000000e+00  1.6077861339751224e-04 -1.8124630397856609e-04 0.0000000000000000e+00  3.5176916371803539e-03 -1.3519746413295545e-03 0.0000000000000000e+00  9.3185483823012615e-05 3.1924814323482841e-04 0.0000000000000000e+00  3.1544790160492444e-03 -1.2178617038542422e-03 0.0000000000000000e+00  -7.5602729050979308e-05 -3.0892633535889869e-04 0.0000000000000000e+00  2.4723532569956600e-03 2.3408068387790909e-04 0.0000000000000000e+00  2.4494017415846573e-03 -3.8201359372362987e-03 0.0000000000000000e+00  2.3143992123870385e-03 -2.1935470006036488e-04 0.0000000000000000e+00  -1.3755623293585713e-03 4.0720340719003410e-04 0.0000000000000000e+00  -9.1001572036324195e-04 -9.2752809969479078e-04 0.0000000000000000e+00  -1.4843190585915830e-04 3.6674096068198747e-04 0.0000000000000000e+00  -9.9381175058739436e-04 1.7380786196018476e-03 0.0000000000000000e+00  1.9981764922456079e-03 -1.0304184172586512e-03 0.0000000000000000e+00  -2.6018377347307759e-03 6.3981396094933143e-04 0.0000000000000000e+00  -1.0201310689432186e-03 1.0474361557248275e-03 0.0000000000000000e+00  4.2324751193217620e-03 -9.5389273425646793e-04 0.0000000000000000e+00  -4.0227349147296445e-03 9.0689824291331506e-04 0.0000000000000000e+00  6.1786779296795482e-03 -1.1021209256150742e-03 0.0000000000000000e+00  8.6167703896518192e-04 -7.9427706577093354e-04 0.0000000000000000e+00  -2.0379629978054719e-03 -7.1050199666696130e-04 0.0000000000000000e+00  5.4695556598617070e-03 -1.7103585881743594e-05 0.0000000000000000e+00  4.9701312265194441e-04 -4.8208852415977698e-05 0.0000000000000000e+00  2.3829935511897999e-03 -2.1808834511930306e-03 0.0000000000000000e+00  3.9910605367878271e-03 -1.5410931164218122e-03 0.0000000000000000e+00  4.2139904251749856e-04 -4.0451184424778803e-05 0.0000000000000000e+00  -1.4116256964481939e-03 -2.5416686624151526e-04 0.0000000000000000e+00  2.7441609534843208e-03 7.6562073866802503e-04 0.0000000000000000e+00  -2.6835484475366744e-03 2.5674963734648002e-03 0.0000000000000000e+00  1.4104373161838504e-03 1.1952186552776510e-03 0.0000000000000000e+00  -5.0152340330024490e-04 1.3168515270413323e-04 0.0000000000000000e+00  2.2247328840709424e-03 7.9185225502033775e-04 0.0000000000000000e+00  -2.2628182224027825e-04 4.9920848775040919e-04 0.0000000000000000e+00  5.0319013023565704e-04 -5.3679924690744980e-04 0.0000000000000000e+00  1.6395854952529015e-04 1.7745906500338971e-03 0.0000000000000000e+00  -1.3812254101175892e-03 4.6471950170114021e-04 0.0000000000000000e+00  3.0352970069941968e-04 8.1379348357781160e-05 0.0000000000000000e+00  -1.5286238590917655e-04 -2.8023351476001718e-05 0.0000000000000000e+00  -1.1301372863576323e-03 4.6507778138043696e-04 0.0000000000000000e+00  -6.0906296379200330e-04 4.0577293817455962e-04 0.0000000000000000e+00  2.0018609408106107e-03 -7.8707966771441760e-04 0.0000000000000000e+00  -2.1910818762512232e-03 5.6527237636882480e-04 0.0000000000000000e+00  2.2216849071100210e-03 1.5781120147249092e-04 0.0000000000000000e+00  3.8156942060384186e-03 -7.7063181442120227e-04 0.0000000000000000e+00  2.5265393976249659e-03 -1.0035794030685196e-03 0.0000000000000000e+00  8.9304160389344408e-03 -1.1004590404822497e-03 0.0000000000000000e+00  8.0687487243794303e-04 -6.8585054099563978e-04 0.0000000000000000e+00  5.0727755347026024e-03 -7.5866755270598621e-04 0.0000000000000000e+00  6.9730404657106259e-04 -1.9939007531132743e-04 0.0000000000000000e+00  2.5316221944398417e-03 -5.3920643309047166e-04 0.0000000000000000e+00  3.1359089940000427e-04 -2.4743349850311571e-04 0.0000000000000000e+00  -5.5961491864113148e-05 1.0941514776219858e-03 0.0000000000000000e+00  -7.8622915023123310e-04 -9.6662398104340608e-05 0.0000000000000000e+00  1.3209060851422899e-03 -2.6948434464295188e-04 0.0000000000000000e+00  5.0384220551419963e-04 -5.4325177547897684e-04 0.0000000000000000e+00  9.3462195369354998e-04 8.9981487309420054e-04 0.0000000000000000e+00  4.5835628664131021e-03 -2.3796036314722609e-03 0.0000000000000000e+00  1.0649640709524465e-03 -1.8591349397908837e-03 0.0000000000000000e+00  2.0524823532385972e-03 -2.3629741754407838e-03 0.0000000000000000e+00  -3.1960596721299253e-03 5.7470069680961725e-03 0.0000000000000000e+00  5.0355935796850564e-04 2.7037302238344343e-06 0.0000000000000000e+00  4.9514752601656281e-04 -1.4879508667203640e-04 0.0000000000000000e+00  -2.3080611875280783e-03 3.3824756605262143e-03 0.0000000000000000e+00  1.3355706222190863e-03 7.3981814357097485e-05 0.0000000000000000e+00  3.8602635498981227e-04 2.0081761815993269e-04 0.0000000000000000e+00  5.4244633038817375e-03 -4.9382788126611787e-04 0.0000000000000000e+00  1.0510286194705663e-03 -2.9185009058934550e-03 0.0000000000000000e+00  1.3316326110225851e-03 -1.1146341261814594e-03 0.0000000000000000e+00  -8.4097421980616109e-04 -3.2579803987111257e-04 0.0000000000000000e+00  2.4305754161922709e-05 -4.2176304060969569e-05 0.0000000000000000e+00  3.0169870427178692e-03 5.5373827380989491e-04 0.0000000000000000e+00  5.0382400174043152e-04 -9.5920770516669460e-05 0.0000000000000000e+00  -3.9204543018773747e-04 -4.4399928789816320e-04 0.0000000000000000e+00  1.1279831538114060e-03 -7.0500674560893266e-04 0.0000000000000000e+00  -1.3243224493646021e-03 1.5456874131796979e-04 0.0000000000000000e+00  3.9401747471719988e-04 8.6081852150841079e-05 0.0000000000000000e+00  5.7160441568449363e-04 5.8316047203571281e-06 0.0000000000000000e+00  4.0588966043138231e-03 -2.0507958035621502e-03 0.0000000000000000e+00  -9.9211164661796311e-04 -2.1282267406980433e-03 0.0000000000000000e+00  -2.5387315431891965e-03 2.0433242854436796e-07 0.0000000000000000e+00  9.9029360872520300e-04 -1.1415783882683704e-03 0.0000000000000000e+00  -5.6015940535176394e-04 8.1047573316876079e-04 0.0000000000000000e+00  8.3629646855259380e-04 -3.3618711566725117e-04 0.0000000000000000e+00  -8.7572900787451051e-04 -3.1668170617186651e-04 0.0000000000000000e+00  -4.3673647057933208e-04 1.0152999661890171e-04 0.0000000000000000e+00  1.1447348076432174e-03 -3.2769582595198955e-04 0.0000000000000000e+00  1.5869810753296287e-03 -1.0694646580394294e-03 0.0000000000000000e+00  2.6882971168395360e-03 -9.6614835470520868e-04 0.0000000000000000e+00  1.1292548601959274e-03 -1.8261423824008315e-04 0.0000000000000000e+00  3.6331631787239011e-04 -7.5246886919720139e-05 0.0000000000000000e+00  2.0699385437048458e-03 -5.4641993242795364e-05 0.0000000000000000e+00  4.7497929869711901e-04 -2.0724419416076051e-05 0.0000000000000000e+00  1.6201553091836733e-03 7.0612949988990877e-04 0.0000000000000000e+00  1.1859124841617269e-03 -7.2766843456296146e-04 0.0000000000000000e+00  -1.6700914015263218e-03 1.6444118978053653e-03 0.0000000000000000e+00  -3.1946075331266968e-03 6.2233711917231865e-04 0.0000000000000000e+00  -1.5567024658103446e-04 1.0515061810172967e-03 0.0000000000000000e+00  -2.1324972294863805e-03 -4.5940387249284218e-04 0.0000000000000000e+00  -3.7608203628388195e-05 -3.8376421191074848e-04 0.0000000000000000e+00  1.0811103749239471e-03 -5.1438221090727490e-04 0.0000000000000000e+00  7.7431949690524025e-04 -2.3982178174808622e-04 0.0000000000000000e+00  -1.7966879413807879e-03 -7.7185368501337976e-04 0.0000000000000000e+00  -8.9244111711356071e-04 1.1333725187055972e-03 0.0000000000000000e+00  -1.1853837391541586e-03 1.4860033165779844e-03 0.0000000000000000e+00  7.7603840563805347e-04 -5.5628443915288950e-04 0.0000000000000000e+00  -3.3326114154835999e-03 7.2504769415946096e-04 0.0000000000000000e+00  -3.3526849529174614e-03 2.0178446943304078e-03 0.0000000000000000e+00  -1.4012477448595813e-03 1.8382435277941769e-03 0.0000000000000000e+00  1.0437924507727780e-03 -3.9122644345173025e-04 0.0000000000000000e+00  1.1162237381304751e-03 1.8121992774310263e-03 0.0000000000000000e+00  -1.2092151676904635e-04 1.2998589239441780e-03 0.0000000000000000e+00  4.1923559783464577e-03 -1.5957425096124649e-03 0.0000000000000000e+00  2.4140994876958006e-04 -5.4409101068737960e-05 0.0000000000000000e+00  6.5601714009887115e-04 -1.6093709149713818e-03 0.0000000000000000e+00  -3.2737331323201748e-03 8.8329181762435583e-04 0.0000000000000000e+00  -2.4442946807734303e-03 1.2283462178541392e-03 0.0000000000000000e+00  -3.6866838094310773e-03 1.5225356181117222e-03 0.0000000000000000e+00  -9.0399285001452898e-04 3.3455789556518655e-04 0.0000000000000000e+00  1.5169160654233843e-03 6.9334882460929284e-04 0.0000000000000000e+00  3.9431060177181417e-05 6.8794920507798463e-04 0.0000000000000000e+00  -7.3655180706407258e-04 2.7484687817896274e-04 0.0000000000000000e+00  -1.6646853997483440e-04 2.5296989280916896e-04 0.0000000000000000e+00  -2.1282177151568573e-04 -1.0591822659744583e-03 0.0000000000000000e+00  -8.9549027553823761e-04 -2.6467996821319709e-04 0.0000000000000000e+00  1.5093348339851296e-03 2.3732002933458669e-03 0.0000000000000000e+00  1.1363111344524924e-03 6.0583177563873502e-05 0.0000000000000000e+00  3.6748845400557360e-05 -5.5820992942466749e-04 0.0000000000000000e+00  -2.4461034546725412e-04 9.7691094939998733e-04 0.0000000000000000e+00  3.2714761923706482e-03 -1.2482571681093494e-03 0.0000000000000000e+00  -9.7948292474035856e-04 -9.6936132202295818e-04 0.0000000000000000e+00  -1.5578510306058088e-03