<?xml version="1.0"?>
<VTKFile type="UnstructuredGrid"  version="0.1"  >
<UnstructuredGrid>
<Piece  NumberOfPoints="1385" NumberOfCells="2640">
<Points>
<DataArray  type="Float64"  NumberOfComponents="3"  format="ascii">0 0 0  1 0 0  1 1 0  0 1 0  0.5 0 0  1 0.5 0  0.5 1 0  0 0.5 0  0.5 0.5 0  0 0.25 0  0.25 0 0  0.25 1 0  0 0.75 0  1 0.25 0  0.75 0 0  1 0.75 0  0.75 1 0  0.7083333333333333 0.2916666666666667 0  0.2916666666666666 0.7083333333333334 0  0.375 0.25 0  0.75 0.625 0  0.2569444444444444 0.4652777777777778 0  0.5366379310344828 0.7535919540229885 0  0.1875 0.1875 0  0.8125 0.8125 0  0.869047619047619 0.375 0  0.1450441919191919 0.6052714646464646 0  0.375 0.8690476190476191 0  0.5526960784313725 0.1825980392156862 0  0.8385416666666666 0.1614583333333334 0  0.1614583333333333 0.8385416666666667 0  0.6736111111111112 0.4652777777777778 0  0.1367521367521368 0.3477564102564102 0  0.6570970491253563 0.8648656830417855 0  0.5102479397556124 0.3386260301221938 0  0.3654513888888889 0.5737847222222222 0  0.6929750044954185 0.1362784921584263 0  0.388576102743835 0.411911725237599 0  0.6091269841269842 0.5942460317460317 0  0.875 0.6875 0  0.427278890279516 0.119889445139758 0  0.8544456845238095 0.5213913690476191 0  0.125 0 0  0 0.125 0  1 0.875 0  0.875 1 0  0.1280008648150532 0.4769292340226777 0  0.2695382451711197 0.3321750950221553 0  0.7031567235715964 0.7447810921428012 0  0.625 0 0  0.375 0 0  0.125 1 0  0.875 0 0  0 0.375 0  0 0.625 0  1 0.375 0  0.375 1 0  1 0.125 0  0 0.875 0  0.625 1 0  1 0.625 0  0.2979288363930608 0.1201429454643536 0  0.410919540229885 0.7484605911330049 0  0.5325041980395562 0.878905151526474 0  0.4831670727569156 0.6331060043826487 0  0.1735997378973042 0.7204747378973043 0  0.2534919507575758 0.5772372159090909 0  0.2633928571428572 0.8876488095238095 0  0.8199404761904761 0.2730654761904762 0  0.75830270586982 0.3919383189517417 0  0.5750282248382511 0.4237522353023667 0  0.6008360210023379 0.2794828358598495 0  0.08163442644334186 0.6821295860397322 0  0.08333333333333333 0.1875 0  0.2028380815996574 0.08844602719988583 0  0.2766521142611967 0.2325436572164097 0  0.90625 0.78125 0  0.890625 0.890625 0  0.7545696325008384 0.8973565441669461 0  0.5625 0.08086590340834317 0  0.09077380952380953 0.09077380952380952 0  0.4610923478694773 0.209034015149656 0  0.7542527598351648 0.5248380520595106 0  0.6459235536037465 0.3619913988405765 0  0.7560381768882634 0.20506142233852 0  0.07073252688172042 0.8125 0  0.0924753097241701 0.9078102849914793 0  0.9292674731182795 0.1875 0  0.9075246902758297 0.09218971500852073 0  0.8125 0.07073252688172045 0  0.2400955776842301 0.7869705776842302 0  0.9121050213379069 0.2781978201831695 0  0.7916878157143976 0.7239689078571988 0  0.9345238095238094 0.4375 0  0.4375 0.9345238095238095 0  0.3725616989755203 0.6651895248862173 0  0.06536271996350887 0.5625 0  0.9348362560379583 0.5625 0  0.456646798987055 0.8277247094351965 0  0.1875 0.9355758238725954 0  0.6169761231634859 0.6939779188977889 0  0.6226854751147515 0.7827911461419014 0  0.3305695598137626 0.7901697871282585 0  0.5865305325818898 0.5101085479043448 0  0.6622701297028378 0.2177663989757395 0  0.1354166666666667 0.2591702279202279 0  0 0.3125 0  0.2094429575680048 0.3936361846162499 0  0.836666296419157 0.607917407161686 0  0.6875 1 0  0.214261555450504 0.6492551722020035 0  0 0.4375 0  0.07731537126068377 0.40625 0  0.3427725432967068 0.4879566233699599 0  0.3550792513951871 0.3331953632609953 0  0.4462473953896857 0.2887834789342508 0  0.4747801464819794 0.417386052030127 0  0.8229836475148948 0.4443292349237342 0  0.7322605135514757 0.8199240278289671 0  0.6756431877205955 0.5468989748126787 0  0.1968419507215863 0.5194573482612496 0  0.3285590277777778 0.9345238095238095 0  0.8125 1 0  0.4198917601920009 0.5134893045331258 0  0.5232405503206691 0.2595791787880157 0  1 0.9375 0  0.1987510870015086 0.3025185951894431 0  0.5625 1 0  0.6005390654136388 0.9228110509230952 0  0.6411254848194414 0.07704872765442942 0  0.3357233162523242 0.1855113224530532 0  0.6730653396610877 0.6393887462324165 0  0.310966987234063 0.6240019765311626 0  0.7368737836204349 0.07457755202327881 0  0.6192316414418171 0.1485238406378594 0  0.5432429670607106 0.678552703844006 0  0.4754371679695679 0.7103946803120881 0  0.07501324890749672 0.3043839897335739 0  0.5358146975860403 0.5688321463205916 0  0.3115271739500156 0.3982137365971444 0  0.3625191397122174 0.0767854603650549 0  0.5024029442563831 0.1264128223758444 0  0.4375 0 0  0.4699946908887376 0.06379961173775725 0  0.9375 0.71875 0  0.9272105898044465 0.635671179608893 0  0.9375 1 0  0.6690971819568612 0.9331530898202766 0  0.1073454944778885 0.7499206387638554 0  0.8699082999280406 0.2232403652524313 0  0.5773118091863964 0.3548027349159383 0  0.1354166666666667 0.1428571428571428 0  0.3125 0 0  0.8241684193077341 0.9257452995055244 0  0.4352314948354036 0.3586940847489378 0  0.4351301473778832 0.5819726043539077 0  0.8073232928518163 0.3419398170341962 0  0.7775949246947366 0.1298519409204575 0  0.6875 0 0  0.7413513991851041 0.457933324954483 0  0.939453125 0.841796875 0  0.5630355154606987 0.8171875156478349 0  0.9345238095238095 0.3461466592368577 0  0.9375 0 0  1 0.0625 0  0.0625 1 0  0 0.9375 0  0.06552178593177167 0.4969053669623468 0  0.1424866619031703 0.4130277709291224 0  0.1275287182444726 0.5422946908002588 0  0.2637686595586339 0.06413888464529549 0  0.2524263535491086 0.1697437503243817 0  0.7367218397988525 0.6888573970660841 0  0.0625 0 0  0 0.0625 0  0.8463594539285995 0.7578283617857982 0  0.3128751192101563 0.2851997374369947 0  0.4015281788351144 0.1806421385113692 0  0.1910251795116588 0.4553332197174453 0  0.287797471442006 0.5222621440543902 0  0.3962628745986055 0.8097380085535307 0  0.3505895299554843 0.7304878890838692 0  0.5019151500495276 0.9356042615328103 0  0.9374389419410134 0.4999931039076005 0  0.3125 1 0  0.1875 1 0  1 0.5625 0  0.4375 1 0  1 0.3125 0  1 0.4375 0  0.8125 0 0  1 0.1875 0  0.5625 0 0  0.1875 0 0  0 0.1875 0  0 0.5625 0  0 0.6875 0  0 0.8125 0  1 0.6875 0  1 0.8125 0  0.8021696218581627 0.6612893947866073 0  0.06154922295426143 0.6239401126946708 0  0.9359375 0.9359375 0  0.4666158024849896 0.7691515918155014 0  0.2318201265217025 0.7064974250277525 0  0.1565954253579966 0.6635489312486841 0  0.1598132503680848 0.7787147500325552 0  0.3146529991605639 0.8510876378205265 0  0.1461873209418733 0.05982804528877814 0  0.06109554988524315 0.2446551776247686 0  0.8054950308560754 0.5564226538848541 0  0.470541749491976 0.8853316336952531 0  0.6948472567465137 0.4042308563372457 0  0.8802828472348889 0.4658893256343853 0  0.6788075634946739 0.7974194205806069 0  0.2155048659603867 0.2428201584940968 0  0.8131223143423806 0.2132171049028394 0  0.4330798005432235 0.6671274900735726 0  0.6015279126162613 0.2187368078743274 0  0.8061636571464289 0.8703766630361714 0  0.7008230445061776 0.3478568388444072 0  0.8638466246958771 0.3147095987735538 0  0.204801534004265 0.8789209409594009 0  0.2449006736431132 0.9424182882803838 0  0.7611268409371427 0.2643056884799992 0  0.7552800864046191 0.7678006649959446 0  0.5983639638906616 0.864113435029236 0  0.1956559506814437 0.577281203577426 0  0.3527670268164207 0.1320469097565204 0  0.7530364577483248 0.3262386077083089 0  0.4535919187979363 0.4690107087451527 0  0.8824869791666666 0.8336588541666666 0  0.8814453125 0.9451171875 0  0.5582987942628019 0.622421666543858 0  0.6817532446064828 0.6939001801354731 0  0.3830295138888889 0.9450968952922078 0  0.4140603937012541 0.05211333372716105 0  0.5535864501303013 0.3060591985391672 0  0.6560130086346878 0.2729726562211558 0  0.890203140221684 0.5948314305427268 0  0.7043857725999024 0.593980890020804 0  0.5105843922695152 0.8016828014338627 0  0.05365910753708378 0.7315110031682004 0  0.616904573672261 0.4621186633436136 0  0.5338511646455415 0.387875898899613 0  0.5231769258947843 0.4477682463140762 0  0.650302973237622 0.7370722302085519 0  0.3927483139621257 0.4662414504529014 0  0.8034595960585199 0.4972538342758211 0  0.7738337841682438 0.9496376207663251 0  0.7193737507158268 0.954685447650112 0  0.482525916480686 0.5528257169991676 0  0.2533501157346781 0.2809495420003238 0  0.3118487924482243 0.5702930126570319 0  0.6257598847669529 0.4104163315430518 0  0.1354166666666667 0.1955605158730158 0  0.04166666666666666 0.15625 0  0.3956448985530264 0.6174149462065157 0  0.8102897701818546 0.3938784238208349 0  0.2641154190013625 0.8344469561943118 0  0.642852220770013 0.5068794586563659 0  0.05271458179508221 0.355846947336007 0  0.7021551360070266 0.8921457280225779 0  0.5692125776683765 0.1328512638850284 0  0.5206162811937602 0.04865158770992991 0  0.6001838442201555 0.04540556991297563 0  0.2597716608242787 0.4118346398477178 0  0.4040584599473195 0.3179589136784675 0  0.1480337679295207 0.8941560631483065 0  0.1344356707112281 0.9466251177415842 0  0.7114696411829317 0.4983917389078826 0  0.7585704698442475 0.5751926345944629 0  0.2189131956390871 0.04022068508159698 0  0.2476935455192043 0.1123642267635843 0  0.185995005654517 0.1365524537205238 0  0.6223414373308711 0.643380839165121 0  0.5732602596637543 0.7190051747306219 0  0.268358222364537 0.6586246524467934 0  0.3265879848129173 0.2369791782191225 0  0.1267095595787346 0.7034787238999181 0  0.1115202922226038 0.6421997933884982 0  0.3128688392940203 0.07260997451790079 0  0.550724900485678 0.9253360991633187 0  0.7142608810459105 0.2384904702214873 0  0.7045869185243887 0.1871826897887429 0  0.890625 0.734375 0  0.953125 0.765625 0  0.2111812642821677 0.8286209446459138 0  0.9590293078204457 0.09375 0  0.953431269039847 0.1435719386408004 0  0.04097069217955424 0.90625 0  0.04656873096015299 0.8564280613591996 0  0.1078743037981226 0.8541621766048062 0  0.8921256962018773 0.1458378233951939 0  0.8521576979194619 0.1084496634207678 0  0.8655663982740958 0.05464346096571447 0  0.04005659640905543 0.09375 0  0.1001448316533417 0.04246776244228261 
[...]
<PointData  Vectors="f_9459-0"> 
<DataArray  type="Float64"  Name="f_9459-0"  NumberOfComponents="3" format="ascii">7.0405279588264952e-03 3.1657196920041779e-03 0.0000000000000000e+00  1.0439190935909617e-03 -3.1100792204730144e-04 0.0000000000000000e+00  3.3186433521598200e-03 2.2163752705150596e-04 0.0000000000000000e+00  4.3605760275597033e-03 3.1805923080575242e-04 0.0000000000000000e+00  2.4449110440637684e-03 -5.0031579587174850e-03 0.0000000000000000e+00  6.1587417971726774e-04 1.6133962131532792e-04 0.0000000000000000e+00  9.9290959824665506e-04 -2.1925504307660371e-04 0.0000000000000000e+00  3.1292676263203686e-03 -1.2864342428615873e-03 0.0000000000000000e+00  -3.1727813436804734e-04 -5.1863206719191825e-04 0.0000000000000000e+00  7.2168591108270168e-03 3.4938268885592247e-04 0.0000000000000000e+00  2.7756382163493208e-03 -2.7701730527464226e-03 0.0000000000000000e+00  -3.1656624598227860e-04 1.6440839134628129e-03 0.0000000000000000e+00  6.6502766575563133e-03 -1.1775435833814435e-03 0.0000000000000000e+00  -5.0545304575539253e-04 4.8849325649690596e-04 0.0000000000000000e+00  3.2487113830001788e-04 1.5538751095072324e-03 0.0000000000000000e+00  2.2531249929957486e-03 -1.6566508653837345e-04 0.0000000000000000e+00  1.8569970010364177e-03 -3.9890229941259695e-04 0.0000000000000000e+00  1.1159059645478948e-03 -1.0403703189820702e-03 0.0000000000000000e+00  1.3469762354723434e-03 -4.8495995286358337e-04 0.0000000000000000e+00  -1.3097537742093866e-03 1.8505883054853352e-03 0.0000000000000000e+00  1.6086047966838146e-03 5.2416605548170209e-04 0.0000000000000000e+00  2.1649398346768895e-03 -2.0798363041107074e-03 0.0000000000000000e+00  1.3574806280474646e-03 6.2323328037121480e-04 0.0000000000000000e+00  -1.6065094557195308e-03 -3.1189247552203181e-03 0.0000000000000000e+00  1.1476603001433622e-03 -1.6796858640767405e-04 0.0000000000000000e+00  2.2900760928692828e-03 1.0366457324838140e-04 0.0000000000000000e+00  -1.2844449903965788e-03 1.1506015715067094e-03 0.0000000000000000e+00  2.8995738400085891e-03 8.4449743851451291e-05 0.0000000000000000e+00  3.4208539271582731e-03 7.5433886653503081e-04 0.0000000000000000e+00  -3.7021642244668070e-04 2.8123603868786983e-04 0.0000000000000000e+00  -9.2975014273114138e-04 -2.4293281034282982e-04 0.0000000000000000e+00  7.1611277763304832e-05 -1.6679882926488913e-03 0.0000000000000000e+00  -1.4649279556203845e-03 5.5312003568640559e-04 0.0000000000000000e+00  1.1144463833711732e-03 -1.2775271847982302e-04 0.0000000000000000e+00  -1.1057253053199361e-03 -1.5700299782592567e-03 0.0000000000000000e+00  5.2950464248960319e-03 2.9345608248318097e-05 0.0000000000000000e+00  -4.5250743901715258e-03 -1.5472989731177614e-04 0.0000000000000000e+00  1.7103199157184131e-03 2.2661945223963020e-03 0.0000000000000000e+00  1.7920122026113594e-04 1.2752108653184464e-03 0.0000000000000000e+00  1.1252700789704858e-03 1.7036598327725152e-05 0.0000000000000000e+00  1.4943846567479248e-03 -2.4667440290649101e-03 0.0000000000000000e+00  1.7424073197575848e-03 1.2911470773614894e-05 0.0000000000000000e+00  2.4437357659118264e-03 -1.8066164535776572e-03 0.0000000000000000e+00  5.4756560119761464e-03 -2.6774002634353520e-03 0.0000000000000000e+00  3.0468388726891142e-03 -2.9702044980317756e-04 0.0000000000000000e+00  1.5020069127625376e-03 -1.5296245167104410e-03 0.0000000000000000e+00  1.5642239798395619e-03 -6.6652780603062472e-04 0.0000000000000000e+00  6.1420240393043257e-03 3.0052340511002698e-04 0.0000000000000000e+00  7.9601454078091598e-04 2.1887849734743259e-04 0.0000000000000000e+00  4.5684328905299474e-03 -9.7158967989735773e-04 0.0000000000000000e+00  2.3688119871349525e-03 -2.0937731848858269e-04 0.0000000000000000e+00  -7.3855923564921907e-04 7.8481400898526316e-04 0.0000000000000000e+00  2.5654910295628310e-03 -5.9320489068364875e-04 0.0000000000000000e+00  7.1111341953489149e-03 -4.5704889399532248e-04 0.0000000000000000e+00  6.9982335820747612e-03 5.6961631360840682e-05 0.0000000000000000e+00  -2.6148770634037001e-04 2.5822856303094879e-04 0.0000000000000000e+00  1.5447471004821208e-04 -1.1164851939485422e-04 0.0000000000000000e+00  -3.5963680927124332e-05 8.2820773775856991e-04 0.0000000000000000e+00  2.7174523101840932e-03 -1.0029616559601448e-03 0.0000000000000000e+00  1.2652300074127848e-03 -6.5102433186043013e-05 0.0000000000000000e+00  1.3706055183767530e-03 -8.7723159114230852e-05 0.0000000000000000e+00  -4.3577613974835039e-04 -1.0980855110542334e-03 0.0000000000000000e+00  -6.9784431297970431e-04 1.1316770929746570e-03 0.0000000000000000e+00  7.2679626304411442e-04 1.9674652516644584e-04 0.0000000000000000e+00  -9.3493321884527544e-05 8.6839555118932822e-04 0.0000000000000000e+00  9.5947512229407721e-04 -1.9561578459593573e-03 0.0000000000000000e+00  1.9001527537836974e-03 7.3244623875490158e-04 0.0000000000000000e+00  3.8410090230436302e-04 2.5352591850652393e-04 0.0000000000000000e+00  -2.2148035958066501e-03 1.2449653347347068e-04 0.0000000000000000e+00  -5.4174464726356310e-04 -1.0947621822341214e-03 0.0000000000000000e+00  3.9983996371063368e-04 -9.7875147936970445e-04 0.0000000000000000e+00  5.8305371479964270e-03 6.6136439611955557e-04 0.0000000000000000e+00  -7.4428229096883461e-04 7.8948377012162012e-04 0.0000000000000000e+00  -3.6133073955445147e-03 -1.4161105088264883e-03 0.0000000000000000e+00  -5.4176490801772130e-03 1.5238216610353056e-03 0.0000000000000000e+00  4.1138434322986238e-03 -1.4269639422829709e-03 0.0000000000000000e+00  1.5677934668756771e-03 -4.0275222666758708e-04 0.0000000000000000e+00  1.3380369578494264e-03 1.6637901020608614e-06 0.0000000000000000e+00  1.2213209975726308e-03 -4.5404519736670439e-04 0.0000000000000000e+00  -2.7489228086535894e-03 -1.2222002451098193e-04 0.0000000000000000e+00  3.8991977487508691e-03 -2.1623782861052341e-03 0.0000000000000000e+00  -3.6571704966944854e-03 7.2278225396260414e-04 0.0000000000000000e+00  1.4131583220955183e-03 -7.2599179938285423e-05 0.0000000000000000e+00  2.4888392682787528e-04 -3.1949634527037577e-05 0.0000000000000000e+00  2.0222788300833777e-03 1.0569737686563490e-03 0.0000000000000000e+00  2.8271735793450083e-03 5.9884506719921470e-04 0.0000000000000000e+00  1.9703211075689031e-03 3.4787274713851603e-04 0.0000000000000000e+00  3.3640631473819040e-03 -8.2757861593879393e-04 0.0000000000000000e+00  -1.1286614955000412e-03 6.4412154812682398e-04 0.0000000000000000e+00  2.1147751951126415e-03 -1.5437837199749130e-03 0.0000000000000000e+00  -5.4436554425098336e-04 8.0858267101968227e-04 0.0000000000000000e+00  1.9922964012857604e-03 6.1920773386179391e-04 0.0000000000000000e+00  1.3100114392997323e-03 -1.1196351456451337e-05 0.0000000000000000e+00  2.0629496692601166e-03 -2.7586139513025482e-04 0.0000000000000000e+00  1.7717901650313951e-03 8.7837839734958103e-05 0.0000000000000000e+00  -1.8691408156515446e-03 -9.1155560878503192e-05 0.0000000000000000e+00  -1.5729444842790419e-03 3.1705088051013517e-03 0.0000000000000000e+00  1.6594014739341673e-03 2.7481715651759041e-05 0.0000000000000000e+00  1.9448162419864578e-03 -1.2365636017481773e-03 0.0000000000000000e+00  -5.7571231141991203e-04 5.9636029477852797e-04 0.0000000000000000e+00  7.7107644495226350e-04 -6.2749716661836675e-04 0.0000000000000000e+00  1.1138872865488034e-03 2.7577694688168275e-04 0.0000000000000000e+00  6.9290462943266077e-04 -3.8054565119459470e-03 0.0000000000000000e+00  2.2224028571266327e-03 -7.8971729337276749e-04 0.0000000000000000e+00  -6.9669589829377898e-04 2.6252038464929014e-03 0.0000000000000000e+00  -1.6801041817812168e-03 -1.5213820697558516e-03 0.0000000000000000e+00  1.0257303459300354e-03 -1.6221372594344154e-03 0.0000000000000000e+00  1.9256784918682371e-04 -1.3235832573101438e-03 0.0000000000000000e+00  6.6829470317046201e-04 2.5502593382481400e-04 0.0000000000000000e+00  1.2876036481118385e-03 -2.7087472986661826e-04 0.0000000000000000e+00  1.5756264835123962e-04 1.2229824599586641e-03 0.0000000000000000e+00  4.4320958140790477e-03 -1.9551385508483048e-03 0.0000000000000000e+00  -1.1953037914107000e-03 2.2557137155474307e-04 0.0000000000000000e+00  -2.9805107591038601e-03 -1.0861226405986186e-03 0.0000000000000000e+00  -1.0855742397658983e-03 -1.7372681691180691e-03 0.0000000000000000e+00  2.4906167483889118e-03 1.4949957923341018e-03 0.0000000000000000e+00  6.6869830910867194e-04 -2.6104250039680238e-03 0.0000000000000000e+00  -1.1471409554452096e-04 6.1358002395041637e-04 0.0000000000000000e+00  1.1351056036397373e-03 1.9070334423086817e-05 0.0000000000000000e+00  6.2937918070941749e-04 -9.3619525339920517e-04 0.0000000000000000e+00  -3.7753666069053060e-03 -6.2533786870382665e-04 0.0000000000000000e+00  -9.4905360568004816e-05 5.8794964005360814e-05 0.0000000000000000e+00  2.7215006624860690e-03 -1.0051684484068770e-03 0.0000000000000000e+00  3.2998908371841178e-03 -7.3614234160804910e-03 0.0000000000000000e+00  -1.6304548214918189e-03 1.5019619849822377e-03 0.0000000000000000e+00  3.6972473721969632e-03 2.3518787341394136e-05 0.0000000000000000e+00  2.1279729925898412e-03 -9.3468295112440107e-04 0.0000000000000000e+00  9.1948594723715725e-04 3.7210304375605969e-05 0.0000000000000000e+00  1.2535303203339173e-03 -4.7037680309212166e-05 0.0000000000000000e+00  2.7722144176294760e-03 -2.1502998230849718e-03 0.0000000000000000e+00  5.0111612961399633e-03 7.3420503893196131e-04 0.0000000000000000e+00  1.9274920023940980e-03 -1.2688164225409015e-04 0.0000000000000000e+00  -2.6334892144911004e-03 4.7855053677304193e-04 0.0000000000000000e+00  4.6506551300110489e-03 -2.8060617922343891e-04 0.0000000000000000e+00  3.1761528634731942e-03 -1.9390916302872918e-03 0.0000000000000000e+00  2.0780419712380783e-03 -7.3128139108729695e-04 0.0000000000000000e+00  2.3648323469456405e-03 -8.2614271261186023e-04 0.0000000000000000e+00  -1.9581278256630332e-03 -1.5924921774085104e-04 0.0000000000000000e+00  2.1896179614260989e-03 -2.6219781672466688e-04 0.0000000000000000e+00  1.7990334147013928e-03 -2.0881510304086854e-03 0.0000000000000000e+00  5.6914541503801314e-04 3.1041185501330688e-03 0.0000000000000000e+00  -1.2016511554877938e-03 -1.0598584131158609e-03 0.0000000000000000e+00  2.2980767476487298e-03 -5.6552941564493898e-04 0.0000000000000000e+00  -2.6977116677531212e-05 3.4382086941555994e-04 0.0000000000000000e+00  1.6603847026917461e-03 -5.7786943511465563e-05 0.0000000000000000e+00  1.2187069416042379e-03 -1.1739830377663959e-05 0.0000000000000000e+00  2.4495650662192461e-03 2.8028453112355871e-04 0.0000000000000000e+00  9.4698147659265006e-04 8.3312753427820774e-05 0.0000000000000000e+00  -2.7592812952029369e-03 8.8536662917207713e-04 0.0000000000000000e+00  1.9811870758090484e-04 3.6653860141006727e-04 0.0000000000000000e+00  5.1999019517533825e-03 -7.3646255175431651e-04 0.0000000000000000e+00  2.9776039192663708e-04 -1.7962740458533639e-04 0.0000000000000000e+00  3.7634589663531788e-03 -1.3556760827639098e-03 0.0000000000000000e+00  9.1887239588637245e-04 3.1470035567974770e-04 0.0000000000000000e+00  3.5656990052635156e-03 -1.2215795461152437e-03 0.0000000000000000e+00  3.8393054735980060e-04 -3.0999602085058210e-04 0.0000000000000000e+00  3.1675273498286078e-03 2.3482892836240482e-04 0.0000000000000000e+00  3.0816368508597824e-03 -3.8195976318714442e-03 0.0000000000000000e+00  2.8495639586584728e-03 -2.1652002716969487e-04 0.0000000000000000e+00  -7.0977214232723768e-04 4.1025778699070484e-04 0.0000000000000000e+00  -2.4782746095180531e-05 -9.2688506140308933e-04 0.0000000000000000e+00  4.5091339716713430e-04 3.6925108452354259e-04 0.0000000000000000e+00  -2.0636851602280236e-04 1.7389108741447908e-03 0.0000000000000000e+00  2.7271095764184617e-03 -1.0315909559442298e-03 0.0000000000000000e+00  -1.8120526805554364e-03 6.4566375831093769e-04 0.0000000000000000e+00  -7.7783778884189022e-04 1.0529117516529963e-03 0.0000000000000000e+00  4.4174612353827056e-03 -9.6133459899135423e-04 0.0000000000000000e+00  -3.8863104549055954e-03 8.9899018950053333e-04 0.0000000000000000e+00  6.3701985700702962e-03 -1.1016935499934075e-03 0.0000000000000000e+00  1.0696550917553361e-03 -7.9556193366905285e-04 0.0000000000000000e+00  -1.8225038914881423e-03 -7.1867055568814592e-04 0.0000000000000000e+00  5.7097393518880770e-03 -1.7097202076200502e-05 0.0000000000000000e+00  1.2012600536750922e-03 -4.9761559339435608e-05 0.0000000000000000e+00  2.4304243306326936e-03 -2.2156680357645446e-03 0.0000000000000000e+00  4.0128229329274515e-03 -1.5764039094011400e-03 0.0000000000000000e+00  1.2265328185659856e-03 -3.8135036306675236e-05 0.0000000000000000e+00  -1.1148036425809975e-03 -2.5504382145669904e-04 0.0000000000000000e+00  3.0974952197682379e-03 7.6850413575520042e-04 0.0000000000000000e+00  -2.4490571397557314e-03 2.5658056512482016e-03 0.0000000000000000e+00  1.7440164315173517e-03 1.1953444648487095e-03 0.0000000000000000e+00  -3.4741219207918010e-05 1.3233041808977726e-04 0.0000000000000000e+00  2.6439502129969191e-03 7.9273510259774012e-04 0.0000000000000000e+00  3.4614456066534981e-04 4.9950725952517907e-04 0.0000000000000000e+00  1.3245284450937433e-03 -5.3245135633838217e-04 0.0000000000000000e+00  5.9886853752683664e-04 1.7767638222393805e-03 0.0000000000000000e+00  -1.0445971988488159e-03 4.6797663707602469e-04 0.0000000000000000e+00  1.1904210246947834e-03 8.3558451368189097e-05 0.0000000000000000e+00  3.7664728410752502e-04 -2.6206084484582005e-05 0.0000000000000000e+00  -3.0245303094013007e-04 4.6665926412683262e-04 0.0000000000000000e+00  2.4339911406070578e-04 4.0580760241347782e-04 0.0000000000000000e+00  2.6342511100162424e-03 -7.7485190580702358e-04 0.0000000000000000e+00  -1.3880427065244155e-03 5.6855051847972662e-04 0.0000000000000000e+00  2.6561504963866925e-03 1.5945826566767679e-04 0.0000000000000000e+00  3.9624495462202754e-03 -7.8522175623023838e-04 0.0000000000000000e+00  2.5583694201731289e-03 -1.0105567502009750e-03 0.0000000000000000e+00  9.0197122572791208e-03 -1.1077788951455577e-03 0.0000000000000000e+00  9.3832858149246138e-04 -6.8070726946699864e-04 0.0000000000000000e+00  5.2217097564643067e-03 -7.5769434939733263e-04 0.0000000000000000e+00  1.6084006392761427e-03 -2.0422227201434865e-04 0.0000000000000000e+00  3.4499558391717757e-03 -5.5194230413662857e-04 0.0000000000000000e+00  1.0705648727049434e-03 -2.4718677010127354e-04 0.0000000000000000e+00  1.0204273857001646e-04 1.1054949013159854e-03 0.0000000000000000e+00  1.0353371294611192e-04 -1.0053249454493448e-04 0.0000000000000000e+00  1.8374589705813513e-03 -2.7241634915975004e-04 0.0000000000000000e+00  8.2656395478890809e-04 -5.4150694997700546e-04 0.0000000000000000e+00  1.1888025344461831e-03 9.0066983183286170e-04 0.0000000000000000e+00  4.8622188601725683e-03 -2.3785255183258074e-03 0.0000000000000000e+00  1.4814754852353874e-03 -1.8606204652651869e-03 0.0000000000000000e+00  2.1856722898775226e-03 -2.3669983963477150e-03 0.0000000000000000e+00  -3.1133646525523702e-03 5.7472275886239904e-03 0.0000000000000000e+00  1.2390710074694682e-03 4.3316647020989957e-06 0.0000000000000000e+00  1.0323011715360768e-03 -1.4912061501529844e-04 0.0000000000000000e+00  -1.6870079979834458e-03 3.3852454340859168e-03 0.0000000000000000e+00  2.1165224033181489e-03 7.6404189534524328e-05 0.0000000000000000e+00  1.0751016260514227e-03 2.0241436735487492e-04 0.0000000000000000e+00  5.6497927055953849e-03 -4.9290964047195231e-04 0.0000000000000000e+00  1.7311512293463811e-03 -2.9187981563088415e-03 0.0000000000000000e+00  1.8030312099618813e-03 -1.1118946284595812e-03 0.0000000000000000e+00  -3.2569966152321635e-04 -3.2270904553365802e-04 0.0000000000000000e+00  8.2499042789584511e-04 -4.3437560070449122e-05 0.0000000000000000e+00  3.6350176865404559e-03 5.5319664823021023e-04 0.0000000000000000e+00  1.2438546182504293e-03 -9.5554009639247666e-05 0.0000000000000000e+00  -5.8995429519176465e-05 -4.4232682618982895e-04 0.0000000000000000e+00  1.5028959340069848e-03 -7.0270543067027687e-04 0.0000000000000000e+00  -6.7699965680041946e-04 1.5576292035591067e-04 0.0000000000000000e+00  1.1367964849067916e-03 8.7744389085112496e-05 0.0000000000000000e+00  1.2078317111607888e-03 7.0262255466904656e-06 0.0000000000000000e+00  4.3314631599113210e-03 -2.0518326000220737e-03 0.0000000000000000e+00  -6.8559164435654386e-04 -2.1299248008656499e-03 0.0000000000000000e+00  -1.8933470043678228e-03 -1.1516094169701377e-06 0.0000000000000000e+00  1.4422609931226721e-03 -1.1435992225313201e-03 0.0000000000000000e+00  2.9250799703160421e-04 8.1301429432885895e-04 0.0000000000000000e+00  1.7101197800360880e-03 -3.3555124430462927e-04 0.0000000000000000e+00  -3.1895554824643371e-04 -3.1451093670826786e-04 0.0000000000000000e+00  2.2962363774900181e-04 1.0376972350841179e-04 0.0000000000000000e+00  1.6162938080228038e-03 -3.2619115178354161e-04 0.0000000000000000e+00  1.9203087783720009e-03 -1.0735138618678396e-03 0.0000000000000000e+00  3.1858411165828844e-03 -9.6637564080924812e-04 0.0000000000000000e+00  1.6927963448966573e-03 -1.7851481097355053e-04 0.0000000000000000e+00  1.1756025492018435e-03 -7.6299315870112451e-05 0.0000000000000000e+00  2.7332568274805692e-03 -5.3544152845248191e-05 0.0000000000000000e+00  1.0345699418648911e-03 -2.1039071291190683e-05 0.0000000000000000e+00  1.7961148091215613e-03 7.0798258181385297e-04 0.0000000000000000e+00  1.7594414025397496e-03 -7.2749499937960823e-04 0.0000000000000000e+00  -1.1749325077283052e-03 1.6463204530131185e-03 0.0000000000000000e+00  -2.6984503690428768e-03 6.2463205010334190e-04 0.0000000000000000e+00  4.9853758442481395e-04 1.0509223674997359e-03 0.0000000000000000e+00  -1.7362768942990579e-03 -4.5715190810449588e-04 0.0000000000000000e+00  6.8604484570239550e-04 -3.8367127881120322e-04 0.0000000000000000e+00  1.8714086957143375e-03 -5.1793261753174235e-04 0.0000000000000000e+00  1.5193144590315141e-03 -2.4238363151907124e-04 0.0000000000000000e+00  -1.3110176103655405e-03 -7.7160388787544248e-04 0.0000000000000000e+00  -6.3543878845973402e-04 1.1344498463597915e-03 0.0000000000000000e+00  -8.2877768207219359e-04 1.4880109163092296e-03 0.0000000000000000e+00  1.3450695643683870e-03 -5.5579321057457954e-04 0.0000000000000000e+00  -3.1906474134948083e-03 7.3179927105159891e-04 0.0000000000000000e+00  -3.3288878713741330e-03 2.0152654445036128e-03 0.0000000000000000e+00  -9.7139246515874828e-04 1.8381744190036253e-03 0.0000000000000000e+00  1.7566801710207889e-03 -3.8913362835318568e-04 0.0000000000000000e+00  1.4902153244093286e-03 1.8146146787029677e-03 0.0000000000000000e+00  4.7854355181388549e-04 1.3008303029407513e-03 0.0000000000000000e+00  4.2875398131097982e-03 -1.6042244469792119e-03 0.0000000000000000e+00  9.6408631487761049e-04 -5.5357567545935940e-05 0.0000000000000000e+00  1.1352105831857438e-03 -1.6110587558894876e-03 0.0000000000000000e+00  -2.8628623210664207e-03 8.8526062200641829e-04 0.0000000000000000e+00  -1.9781524399306873e-03 1.2331919431451033e-03 0.0000000000000000e+00  -3.4158068506658394e-03 1.5261774969449293e-03 0.0000000000000000e+00  -5.2575940879009736e-04 3.3610050925846660e-04 0.0000000000000000e+00  1.8162985711307198e-03 6.9583892665951936e-04 0.0000000000000000e+00  3.3120644339061102e-04 6.9209835191517011e-04 0.0000000000000000e+00  -8.2363700686030245e-05 2.7434017701789023e-04 0.0000000000000000e+00  5.4108568785384589e-04 2.5171652596648431e-04 0.0000000000000000e+00  -2.6285402265617866e-05 -1.0660899338804691e-03 0.0000000000000000e+00  -6.7282948466353587e-04 -2.6585129904005509e-04 0.0000000000000000e+00  1.6893498332000729e-03 2.3741786319801369e-03 0.0000000000000000e+00  1.7491777880261129e-03 6.1190701854016340e-05 0.0000000000000000e+00  6.2639910904892931e-04 -5.5838669559133184e-04 0.0000000000000000e+00  9.9971484988396200e-05 9.7763755170454138e-04 0.0000000000000000e+00  3.5813779110142933e-03 -1.2473744732717710e-03 0.0000000000000000e+00  -7.4178662692705359e-04 -9.7122779516192271e-04 0.0000000000000000e+00  -1.3426623192715459e-03 -8.1379065081974673e-04 