<?xml version="1.0"?>
<VTKFile type="UnstructuredGrid"  version="0.1"  >
<UnstructuredGrid>
<Piece  NumberOfPoints="1385" NumberOfCells="2640">
<Points>
<DataArray  type="Float64"  NumberOfComponents="3"  format="ascii">0 0 0  1 0 0  1 1 0  0 1 0  0.5 0 0  1 0.5 0  0.5 1 0  0 0.5 0  0.5 0.5 0  0 0.25 0  0.25 0 0  0.25 1 0  0 0.75 0  1 0.25 0  0.75 0 0  1 0.75 0  0.75 1 0  0.7083333333333333 0.2916666666666667 0  0.2916666666666666 0.7083333333333334 0  0.375 0.25 0  0.75 0.625 0  0.2569444444444444 0.4652777777777778 0  0.5366379310344828 0.7535919540229885 0  0.1875 0.1875 0  0.8125 0.8125 0  0.869047619047619 0.375 0  0.1450441919191919 0.6052714646464646 0  0.375 0.8690476190476191 0  0.5526960784313725 0.1825980392156862 0  0.8385416666666666 0.1614583333333334 0  0.1614583333333333 0.8385416666666667 0  0.6736111111111112 0.4652777777777778 0  0.1367521367521368 0.3477564102564102 0  0.6570970491253563 0.8648656830417855 0  0.5102479397556124 0.3386260301221938 0  0.3654513888888889 0.5737847222222222 0  0.6929750044954185 0.1362784921584263 0  0.388576102743835 0.411911725237599 0  0.6091269841269842 0.5942460317460317 0  0.875 0.6875 0  0.427278890279516 0.119889445139758 0  0.8544456845238095 0.5213913690476191 0  0.125 0 0  0 0.125 0  1 0.875 0  0.875 1 0  0.1280008648150532 0.4769292340226777 0  0.2695382451711197 0.3321750950221553 0  0.7031567235715964 0.7447810921428012 0  0.625 0 0  0.375 0 0  0.125 1 0  0.875 0 0  0 0.375 0  0 0.625 0  1 0.375 0  0.375 1 0  1 0.125 0  0 0.875 0  0.625 1 0  1 0.625 0  0.2979288363930608 0.1201429454643536 0  0.410919540229885 0.7484605911330049 0  0.5325041980395562 0.878905151526474 0  0.4831670727569156 0.6331060043826487 0  0.1735997378973042 0.7204747378973043 0  0.2534919507575758 0.5772372159090909 0  0.2633928571428572 0.8876488095238095 0  0.8199404761904761 0.2730654761904762 0  0.75830270586982 0.3919383189517417 0  0.5750282248382511 0.4237522353023667 0  0.6008360210023379 0.2794828358598495 0  0.08163442644334186 0.6821295860397322 0  0.08333333333333333 0.1875 0  0.2028380815996574 0.08844602719988583 0  0.2766521142611967 0.2325436572164097 0  0.90625 0.78125 0  0.890625 0.890625 0  0.7545696325008384 0.8973565441669461 0  0.5625 0.08086590340834317 0  0.09077380952380953 0.09077380952380952 0  0.4610923478694773 0.209034015149656 0  0.7542527598351648 0.5248380520595106 0  0.6459235536037465 0.3619913988405765 0  0.7560381768882634 0.20506142233852 0  0.07073252688172042 0.8125 0  0.0924753097241701 0.9078102849914793 0  0.9292674731182795 0.1875 0  0.9075246902758297 0.09218971500852073 0  0.8125 0.07073252688172045 0  0.2400955776842301 0.7869705776842302 0  0.9121050213379069 0.2781978201831695 0  0.7916878157143976 0.7239689078571988 0  0.9345238095238094 0.4375 0  0.4375 0.9345238095238095 0  0.3725616989755203 0.6651895248862173 0  0.06536271996350887 0.5625 0  0.9348362560379583 0.5625 0  0.456646798987055 0.8277247094351965 0  0.1875 0.9355758238725954 0  0.6169761231634859 0.6939779188977889 0  0.6226854751147515 0.7827911461419014 0  0.3305695598137626 0.7901697871282585 0  0.5865305325818898 0.5101085479043448 0  0.6622701297028378 0.2177663989757395 0  0.1354166666666667 0.2591702279202279 0  0 0.3125 0  0.2094429575680048 0.3936361846162499 0  0.836666296419157 0.607917407161686 0  0.6875 1 0  0.214261555450504 0.6492551722020035 0  0 0.4375 0  0.07731537126068377 0.40625 0  0.3427725432967068 0.4879566233699599 0  0.3550792513951871 0.3331953632609953 0  0.4462473953896857 0.2887834789342508 0  0.4747801464819794 0.417386052030127 0  0.8229836475148948 0.4443292349237342 0  0.7322605135514757 0.8199240278289671 0  0.6756431877205955 0.5468989748126787 0  0.1968419507215863 0.5194573482612496 0  0.3285590277777778 0.9345238095238095 0  0.8125 1 0  0.4198917601920009 0.5134893045331258 0  0.5232405503206691 0.2595791787880157 0  1 0.9375 0  0.1987510870015086 0.3025185951894431 0  0.5625 1 0  0.6005390654136388 0.9228110509230952 0  0.6411254848194414 0.07704872765442942 0  0.3357233162523242 0.1855113224530532 0  0.6730653396610877 0.6393887462324165 0  0.310966987234063 0.6240019765311626 0  0.7368737836204349 0.07457755202327881 0  0.6192316414418171 0.1485238406378594 0  0.5432429670607106 0.678552703844006 0  0.4754371679695679 0.7103946803120881 0  0.07501324890749672 0.3043839897335739 0  0.5358146975860403 0.5688321463205916 0  0.3115271739500156 0.3982137365971444 0  0.3625191397122174 0.0767854603650549 0  0.5024029442563831 0.1264128223758444 0  0.4375 0 0  0.4699946908887376 0.06379961173775725 0  0.9375 0.71875 0  0.9272105898044465 0.635671179608893 0  0.9375 1 0  0.6690971819568612 0.9331530898202766 0  0.1073454944778885 0.7499206387638554 0  0.8699082999280406 0.2232403652524313 0  0.5773118091863964 0.3548027349159383 0  0.1354166666666667 0.1428571428571428 0  0.3125 0 0  0.8241684193077341 0.9257452995055244 0  0.4352314948354036 0.3586940847489378 0  0.4351301473778832 0.5819726043539077 0  0.8073232928518163 0.3419398170341962 0  0.7775949246947366 0.1298519409204575 0  0.6875 0 0  0.7413513991851041 0.457933324954483 0  0.939453125 0.841796875 0  0.5630355154606987 0.8171875156478349 0  0.9345238095238095 0.3461466592368577 0  0.9375 0 0  1 0.0625 0  0.0625 1 0  0 0.9375 0  0.06552178593177167 0.4969053669623468 0  0.1424866619031703 0.4130277709291224 0  0.1275287182444726 0.5422946908002588 0  0.2637686595586339 0.06413888464529549 0  0.2524263535491086 0.1697437503243817 0  0.7367218397988525 0.6888573970660841 0  0.0625 0 0  0 0.0625 0  0.8463594539285995 0.7578283617857982 0  0.3128751192101563 0.2851997374369947 0  0.4015281788351144 0.1806421385113692 0  0.1910251795116588 0.4553332197174453 0  0.287797471442006 0.5222621440543902 0  0.3962628745986055 0.8097380085535307 0  0.3505895299554843 0.7304878890838692 0  0.5019151500495276 0.9356042615328103 0  0.9374389419410134 0.4999931039076005 0  0.3125 1 0  0.1875 1 0  1 0.5625 0  0.4375 1 0  1 0.3125 0  1 0.4375 0  0.8125 0 0  1 0.1875 0  0.5625 0 0  0.1875 0 0  0 0.1875 0  0 0.5625 0  0 0.6875 0  0 0.8125 0  1 0.6875 0  1 0.8125 0  0.8021696218581627 0.6612893947866073 0  0.06154922295426143 0.6239401126946708 0  0.9359375 0.9359375 0  0.4666158024849896 0.7691515918155014 0  0.2318201265217025 0.7064974250277525 0  0.1565954253579966 0.6635489312486841 0  0.1598132503680848 0.7787147500325552 0  0.3146529991605639 0.8510876378205265 0  0.1461873209418733 0.05982804528877814 0  0.06109554988524315 0.2446551776247686 0  0.8054950308560754 0.5564226538848541 0  0.470541749491976 0.8853316336952531 0  0.6948472567465137 0.4042308563372457 0  0.8802828472348889 0.4658893256343853 0  0.6788075634946739 0.7974194205806069 0  0.2155048659603867 0.2428201584940968 0  0.8131223143423806 0.2132171049028394 0  0.4330798005432235 0.6671274900735726 0  0.6015279126162613 0.2187368078743274 0  0.8061636571464289 0.8703766630361714 0  0.7008230445061776 0.3478568388444072 0  0.8638466246958771 0.3147095987735538 0  0.204801534004265 0.8789209409594009 0  0.2449006736431132 0.9424182882803838 0  0.7611268409371427 0.2643056884799992 0  0.7552800864046191 0.7678006649959446 0  0.5983639638906616 0.864113435029236 0  0.1956559506814437 0.577281203577426 0  0.3527670268164207 0.1320469097565204 0  0.7530364577483248 0.3262386077083089 0  0.4535919187979363 0.4690107087451527 0  0.8824869791666666 0.8336588541666666 0  0.8814453125 0.9451171875 0  0.5582987942628019 0.622421666543858 0  0.6817532446064828 0.6939001801354731 0  0.3830295138888889 0.9450968952922078 0  0.4140603937012541 0.05211333372716105 0  0.5535864501303013 0.3060591985391672 0  0.6560130086346878 0.2729726562211558 0  0.890203140221684 0.5948314305427268 0  0.7043857725999024 0.593980890020804 0  0.5105843922695152 0.8016828014338627 0  0.05365910753708378 0.7315110031682004 0  0.616904573672261 0.4621186633436136 0  0.5338511646455415 0.387875898899613 0  0.5231769258947843 0.4477682463140762 0  0.650302973237622 0.7370722302085519 0  0.3927483139621257 0.4662414504529014 0  0.8034595960585199 0.4972538342758211 0  0.7738337841682438 0.9496376207663251 0  0.7193737507158268 0.954685447650112 0  0.482525916480686 0.5528257169991676 0  0.2533501157346781 0.2809495420003238 0  0.3118487924482243 0.5702930126570319 0  0.6257598847669529 0.4104163315430518 0  0.1354166666666667 0.1955605158730158 0  0.04166666666666666 0.15625 0  0.3956448985530264 0.6174149462065157 0  0.8102897701818546 0.3938784238208349 0  0.2641154190013625 0.8344469561943118 0  0.642852220770013 0.5068794586563659 0  0.05271458179508221 0.355846947336007 0  0.7021551360070266 0.8921457280225779 0  0.5692125776683765 0.1328512638850284 0  0.5206162811937602 0.04865158770992991 0  0.6001838442201555 0.04540556991297563 0  0.2597716608242787 0.4118346398477178 0  0.4040584599473195 0.3179589136784675 0  0.1480337679295207 0.8941560631483065 0  0.1344356707112281 0.9466251177415842 0  0.7114696411829317 0.4983917389078826 0  0.7585704698442475 0.5751926345944629 0  0.2189131956390871 0.04022068508159698 0  0.2476935455192043 0.1123642267635843 0  0.185995005654517 0.1365524537205238 0  0.6223414373308711 0.643380839165121 0  0.5732602596637543 0.7190051747306219 0  0.268358222364537 0.6586246524467934 0  0.3265879848129173 0.2369791782191225 0  0.1267095595787346 0.7034787238999181 0  0.1115202922226038 0.6421997933884982 0  0.3128688392940203 0.07260997451790079 0  0.550724900485678 0.9253360991633187 0  0.7142608810459105 0.2384904702214873 0  0.7045869185243887 0.1871826897887429 0  0.890625 0.734375 0  0.953125 0.765625 0  0.2111812642821677 0.8286209446459138 0  0.9590293078204457 0.09375 0  0.953431269039847 0.1435719386408004 0  0.04097069217955424 0.90625 0  0.04656873096015299 0.8564280613591996 0  0.1078743037981226 0.8541621766048062 0  0.8921256962018773 0.1458378233951939 0  0.8521576979194619 0.1084496634207678 0  0.8655663982740958 0.05464346096571447 0  0.04005659640905543 0.09375 0  0.1001448316533417 0.04246776244228261 
[...]
<PointData  Vectors="f_9839-0"> 
<DataArray  type="Float64"  Name="f_9839-0"  NumberOfComponents="3" format="ascii">7.0504903644658008e-03 3.1664978010453528e-03 0.0000000000000000e+00  1.4864503607979317e-03 -3.1072216695928758e-04 0.0000000000000000e+00  3.8756669982772177e-03 2.2834683774718037e-04 0.0000000000000000e+00  4.4776899567120498e-03 3.1649841458148168e-04 0.0000000000000000e+00  2.6679317985312048e-03 -5.0052428019062307e-03 0.0000000000000000e+00  1.1161932539795493e-03 1.6104298884064415e-04 0.0000000000000000e+00  1.3266783552439165e-03 -2.1999914350924601e-04 0.0000000000000000e+00  3.1872524472541753e-03 -1.2849706478386333e-03 0.0000000000000000e+00  -3.8327743105981535e-05 -5.1863060556709686e-04 0.0000000000000000e+00  7.2481372640926852e-03 3.4741464605505092e-04 0.0000000000000000e+00  2.8887422761433175e-03 -2.7703502299857566e-03 0.0000000000000000e+00  -9.5115911188248172e-05 1.6454434278135683e-03 0.0000000000000000e+00  6.7359813163989490e-03 -1.1770050866523011e-03 0.0000000000000000e+00  -3.4128270494808541e-05 4.8937928302970749e-04 0.0000000000000000e+00  6.5839425022612462e-04 1.5544331646994214e-03 0.0000000000000000e+00  2.7812057497248544e-03 -1.6782812885505349e-04 0.0000000000000000e+00  2.3009085398281253e-03 -4.0040463568746494e-04 0.0000000000000000e+00  1.4650952274027598e-03 -1.0404721474477630e-03 0.0000000000000000e+00  1.5569535514935676e-03 -4.8513184567995469e-04 0.0000000000000000e+00  -1.1136168654235100e-03 1.8514210556505504e-03 0.0000000000000000e+00  2.0127241079461234e-03 5.2452105964817476e-04 0.0000000000000000e+00  2.3338792205699695e-03 -2.0802879684456038e-03 0.0000000000000000e+00  1.6809222504789978e-03 6.2407424836088108e-04 0.0000000000000000e+00  -1.5015816921813468e-03 -3.1196558510223401e-03 0.0000000000000000e+00  1.6007948615995157e-03 -1.6801610446144069e-04 0.0000000000000000e+00  2.7197219772978239e-03 1.0315059427246049e-04 0.0000000000000000e+00  -1.1508328299122783e-03 1.1515276606093882e-03 0.0000000000000000e+00  3.1647618280282929e-03 8.4470731704446432e-05 0.0000000000000000e+00  3.6895524189219661e-03 7.5507198453182169e-04 0.0000000000000000e+00  2.0569205349523663e-05 2.8155654697505214e-04 0.0000000000000000e+00  -7.6389001897659724e-04 -2.4255690276713430e-04 0.0000000000000000e+00  4.2303158776731944e-04 -1.6686139339134043e-03 0.0000000000000000e+00  -1.3648979918324505e-03 5.5302266231761982e-04 0.0000000000000000e+00  1.5041545314315005e-03 -1.2804534762631426e-04 0.0000000000000000e+00  -8.4026121441508575e-04 -1.5702400132531944e-03 0.0000000000000000e+00  5.5242530774303328e-03 2.9780015271543879e-05 0.0000000000000000e+00  -4.2025283316738677e-03 -1.5432328403156427e-04 0.0000000000000000e+00  1.9308148727217897e-03 2.2670760459713377e-03 0.0000000000000000e+00  5.1752652241436083e-04 1.2759290891674988e-03 0.0000000000000000e+00  1.5920666090628360e-03 1.6858078641051320e-05 0.0000000000000000e+00  1.6997364186685617e-03 -2.4681703094744825e-03 0.0000000000000000e+00  2.1825828755985535e-03 1.2933814928547840e-05 0.0000000000000000e+00  2.5007452928684035e-03 -1.8143335764593568e-03 0.0000000000000000e+00  5.4934011025345158e-03 -2.6853201662744644e-03 0.0000000000000000e+00  3.5897502268499252e-03 -3.0011815165149289e-04 0.0000000000000000e+00  2.0026409087950466e-03 -1.5333755472850107e-03 0.0000000000000000e+00  1.6757880960294050e-03 -6.6762302150151411e-04 0.0000000000000000e+00  6.3022038406479325e-03 3.0067949152702566e-04 0.0000000000000000e+00  1.1922720216186705e-03 2.1893664687317555e-04 0.0000000000000000e+00  4.8476876448582326e-03 -9.7175126623120080e-04 0.0000000000000000e+00  2.5360321351445233e-03 -2.1030278623164662e-04 0.0000000000000000e+00  -5.7220754556931979e-04 7.8674101740325156e-04 0.0000000000000000e+00  2.9547675300680854e-03 -5.9297922068774790e-04 0.0000000000000000e+00  7.1548465351933431e-03 -4.5819939934833420e-04 0.0000000000000000e+00  7.0709483553300775e-03 5.5521598971518000e-05 0.0000000000000000e+00  2.2461565510631235e-04 2.5854572851257676e-04 0.0000000000000000e+00  4.3162975230305367e-04 -1.1207777635594006e-04 0.0000000000000000e+00  4.2501880643381717e-04 8.2961829881604554e-04 0.0000000000000000e+00  2.8177065703556270e-03 -1.0010324287165109e-03 0.0000000000000000e+00  1.6541494931598824e-03 -6.5481697472119656e-05 0.0000000000000000e+00  1.8862049574508218e-03 -8.8290392932435812e-05 0.0000000000000000e+00  -2.8932730480318186e-04 -1.0989792033917422e-03 0.0000000000000000e+00  -4.3061207015614969e-04 1.1321321383633890e-03 0.0000000000000000e+00  1.0630298041942516e-03 1.9676621970135392e-04 0.0000000000000000e+00  1.9280391539563848e-04 8.6878951454560449e-04 0.0000000000000000e+00  1.1187028536549109e-03 -1.9566067429855061e-03 0.0000000000000000e+00  2.0785494000531432e-03 7.3281645473467077e-04 0.0000000000000000e+00  6.0045693878958846e-04 2.5441581214844265e-04 0.0000000000000000e+00  -1.8204155047517653e-03 1.2463823076477344e-04 0.0000000000000000e+00  -1.5951905451361763e-04 -1.0952781402859080e-03 0.0000000000000000e+00  7.0403396828984833e-04 -9.7884792518985065e-04 0.0000000000000000e+00  6.1319868669637168e-03 6.6178346441864079e-04 0.0000000000000000e+00  -6.3445521414361812e-04 7.8970068670836764e-04 0.0000000000000000e+00  -3.5590628052940007e-03 -1.4168940350811595e-03 0.0000000000000000e+00  -5.3176565973367595e-03 1.5241386437626755e-03 0.0000000000000000e+00  4.2655599187627303e-03 -1.4271877459801189e-03 0.0000000000000000e+00  2.0574819136296519e-03 -4.0309808389561426e-04 0.0000000000000000e+00  1.8342452830080402e-03 1.0064744322949375e-06 0.0000000000000000e+00  1.6583203167944089e-03 -4.5477501823991808e-04 0.0000000000000000e+00  -2.4910669212144672e-03 -1.2251169064199461e-04 0.0000000000000000e+00  3.9507296864822461e-03 -2.1638927845652914e-03 0.0000000000000000e+00  -3.4295245664219282e-03 7.2285730395270028e-04 0.0000000000000000e+00  1.8080792858631821e-03 -7.2388428297986431e-05 0.0000000000000000e+00  5.7700235225219602e-04 -3.1882280453566678e-05 0.0000000000000000e+00  2.3828544445747305e-03 1.0575006650790154e-03 0.0000000000000000e+00  2.9465068294605022e-03 6.0015880436767245e-04 0.0000000000000000e+00  2.1122793047683715e-03 3.4929725726467808e-04 0.0000000000000000e+00  3.7956668201260669e-03 -8.2655011429867632e-04 0.0000000000000000e+00  -7.1751447451942076e-04 6.4631032981529593e-04 0.0000000000000000e+00  2.4853593292969429e-03 -1.5443149156971056e-03 0.0000000000000000e+00  -3.4834397848197132e-04 8.0878510540815455e-04 0.0000000000000000e+00  2.4294172927179650e-03 6.2020246733961583e-04 0.0000000000000000e+00  1.7435203445585056e-03 -1.0418184480248183e-05 0.0000000000000000e+00  2.5226810784871930e-03 -2.7588271332465274e-04 0.0000000000000000e+00  2.0697866563928911e-03 8.7439410942347155e-05 0.0000000000000000e+00  -1.6300287204777716e-03 -9.1020068894148544e-05 0.0000000000000000e+00  -1.4876883563444650e-03 3.1747479286354224e-03 0.0000000000000000e+00  2.1320894994469098e-03 2.6736167753552914e-05 0.0000000000000000e+00  2.2417492626993236e-03 -1.2369057124981364e-03 0.0000000000000000e+00  -3.8895698927532505e-04 5.9745698341852089e-04 0.0000000000000000e+00  1.1241827919016185e-03 -6.2729769923416554e-04 0.0000000000000000e+00  1.4788861497759872e-03 2.7599508637182724e-04 0.0000000000000000e+00  9.2877837161304091e-04 -3.8065855171818342e-03 0.0000000000000000e+00  2.5424292411344285e-03 -7.9023736480163026e-04 0.0000000000000000e+00  -3.7703562925845281e-04 2.6260383854431048e-03 0.0000000000000000e+00  -1.5905442639304740e-03 -1.5220360697196110e-03 0.0000000000000000e+00  1.0626599514263640e-03 -1.6231897313410955e-03 0.0000000000000000e+00  3.3093341264648989e-04 -1.3243820242262016e-03 0.0000000000000000e+00  1.1092252530326848e-03 2.5506006950115775e-04 0.0000000000000000e+00  1.7042014602217277e-03 -2.7156939633295565e-04 0.0000000000000000e+00  3.2569463379093728e-04 1.2232991537876163e-03 0.0000000000000000e+00  4.4823786902684157e-03 -1.9576487661299349e-03 0.0000000000000000e+00  -1.1181835111058077e-03 2.2644449005525551e-04 0.0000000000000000e+00  -2.7741619391540894e-03 -1.0863949667839397e-03 0.0000000000000000e+00  -8.8900405506517951e-04 -1.7378927033366398e-03 0.0000000000000000e+00  2.7222937281179034e-03 1.4960747877688996e-03 0.0000000000000000e+00  9.2770617106687164e-04 -2.6111423184202506e-03 0.0000000000000000e+00  3.0076486429480139e-04 6.1335750775815489e-04 0.0000000000000000e+00  1.5529720529144071e-03 1.9223803680935023e-05 0.0000000000000000e+00  9.9137732999637191e-04 -9.3634620995027376e-04 0.0000000000000000e+00  -3.6304840465133026e-03 -6.2539640296697258e-04 0.0000000000000000e+00  1.5349529870158822e-04 5.9344060770251698e-05 0.0000000000000000e+00  3.1928441306053722e-03 -1.0069497338388727e-03 0.0000000000000000e+00  3.5461448558155952e-03 -7.3644610409481434e-03 0.0000000000000000e+00  -1.3677840170107350e-03 1.5025496514717161e-03 0.0000000000000000e+00  4.2528767198595262e-03 1.9554913231878214e-05 0.0000000000000000e+00  2.2512447399768900e-03 -9.3473001638040413e-04 0.0000000000000000e+00  1.2801039600349162e-03 3.6894613409835068e-05 0.0000000000000000e+00  1.6220096213283796e-03 -4.6702521841834096e-05 0.0000000000000000e+00  3.0667266718412585e-03 -2.1510443741743668e-03 0.0000000000000000e+00  5.1844321261760740e-03 7.3461173576435930e-04 0.0000000000000000e+00  2.2994445178908043e-03 -1.2661151989931652e-04 0.0000000000000000e+00  -2.4256418520137222e-03 4.7931762917624620e-04 0.0000000000000000e+00  4.9886992604909770e-03 -2.8033923314723356e-04 0.0000000000000000e+00  3.4691732124913677e-03 -1.9400276455988062e-03 0.0000000000000000e+00  2.3970637750360137e-03 -7.3177665600872776e-04 0.0000000000000000e+00  2.6562652724346375e-03 -8.2519049583755911e-04 0.0000000000000000e+00  -1.8942335989619542e-03 -1.6033415085280810e-04 0.0000000000000000e+00  2.4923265246497984e-03 -2.6197437278438810e-04 0.0000000000000000e+00  1.9838374223443526e-03 -2.0883213130861817e-03 0.0000000000000000e+00  7.3890944841412684e-04 3.1048341986309501e-03 0.0000000000000000e+00  -9.6463478360169636e-04 -1.0596925771068238e-03 0.0000000000000000e+00  2.4930707826745216e-03 -5.6651039769396922e-04 0.0000000000000000e+00  1.8725411609630768e-04 3.4406429783619591e-04 0.0000000000000000e+00  2.1511820050785571e-03 -5.8593978703052859e-05 0.0000000000000000e+00  1.6986562434521042e-03 -1.2663238468380890e-05 0.0000000000000000e+00  2.9776161076903664e-03 2.7648981042595241e-04 0.0000000000000000e+00  1.3462743232322554e-03 8.3128773017446313e-05 0.0000000000000000e+00  -2.6284034863608874e-03 8.8607485111847684e-04 0.0000000000000000e+00  6.1003174276818336e-04 3.6704974782338296e-04 0.0000000000000000e+00  5.4990503231811330e-03 -7.3660312613965488e-04 0.0000000000000000e+00  3.7593044906526079e-04 -1.7899754878614063e-04 0.0000000000000000e+00  3.9032814988294285e-03 -1.3569015163884990e-03 0.0000000000000000e+00  1.3882000857767969e-03 3.1365043231052609e-04 0.0000000000000000e+00  3.8011557844179157e-03 -1.2222190539764905e-03 0.0000000000000000e+00  6.4441020024311288e-04 -3.1006378084184709e-04 0.0000000000000000e+00  3.5661345817767686e-03 2.3544874785742516e-04 0.0000000000000000e+00  3.4438594857440080e-03 -3.8207747003422875e-03 0.0000000000000000e+00  3.1563366724509023e-03 -2.1605530538494004e-04 0.0000000000000000e+00  -3.2903778052074473e-04 4.1086458527032454e-04 0.0000000000000000e+00  4.7743671424946147e-04 -9.2653223609692834e-04 0.0000000000000000e+00  7.9335841894085074e-04 3.6963397103894507e-04 0.0000000000000000e+00  2.4217788038029958e-04 1.7385341319118305e-03 0.0000000000000000e+00  3.1448254968567397e-03 -1.0327625256008961e-03 0.0000000000000000e+00  -1.3579668343257001e-03 6.4671540350643222e-04 0.0000000000000000e+00  -6.3867312694175645e-04 1.0543374714009667e-03 0.0000000000000000e+00  4.5265170601740514e-03 -9.6259879830738705e-04 0.0000000000000000e+00  -3.8087977165177974e-03 8.9721478292348865e-04 0.0000000000000000e+00  6.4821514547871422e-03 -1.1019628342172144e-03 0.0000000000000000e+00  1.1889788220800733e-03 -7.9624634548878810e-04 0.0000000000000000e+00  -1.6995131478587549e-03 -7.2067495060122266e-04 0.0000000000000000e+00  5.8452058809219257e-03 -1.7010539919157690e-05 0.0000000000000000e+00  1.6050361236366619e-03 -4.9715539252741074e-05 0.0000000000000000e+00  2.4593544261202905e-03 -2.2224716560046219e-03 0.0000000000000000e+00  4.0278549936189970e-03 -1.5798653816002256e-03 0.0000000000000000e+00  1.6874998499546187e-03 -3.7491723494931456e-05 0.0000000000000000e+00  -9.4415925118313654e-04 -2.5486429943673197e-04 0.0000000000000000e+00  3.2990620600353540e-03 7.6912317364028469e-04 0.0000000000000000e+00  -2.3141744957533212e-03 2.5669177910030527e-03 0.0000000000000000e+00  1.9320628581968686e-03 1.1956879037949399e-03 0.0000000000000000e+00  2.3209316119076408e-04 1.3267843997509553e-04 0.0000000000000000e+00  2.8828291238246627e-03 7.9324093037400393e-04 0.0000000000000000e+00  6.7200055651433685e-04 4.9957756354056129e-04 0.0000000000000000e+00  1.7910909389535191e-03 -5.3126075659379888e-04 0.0000000000000000e+00  8.4898758129767693e-04 1.7786258150232193e-03 0.0000000000000000e+00  -8.5123005685491522e-04 4.6913480714648806e-04 0.0000000000000000e+00  1.6991962153419487e-03 8.3930827268855488e-05 0.0000000000000000e+00  6.8154979928648242e-04 -2.6207187400061836e-05 0.0000000000000000e+00  1.7662298749303198e-04 4.6714108090976101e-04 0.0000000000000000e+00  7.3612468288333235e-04 4.0598995001831591e-04 0.0000000000000000e+00  2.9962224722403443e-03 -7.7199072340956745e-04 0.0000000000000000e+00  -9.2335581641978524e-04 5.6998919609628615e-04 0.0000000000000000e+00  2.9067076494276320e-03 1.5913963752463831e-04 0.0000000000000000e+00  4.0472482118788086e-03 -7.8914738938264193e-04 0.0000000000000000e+00  2.5819241250627420e-03 -1.0147927077111417e-03 0.0000000000000000e+00  9.0839372308359322e-03 -1.1085163020276886e-03 0.0000000000000000e+00  1.0163893939116632e-03 -6.7975135531767083e-04 0.0000000000000000e+00  5.3141686578134506e-03 -7.5730033614020836e-04 0.0000000000000000e+00  2.1315474568072510e-03 -2.0574321005608655e-04 0.0000000000000000e+00  3.9842330080780671e-03 -5.5487226697916955e-04 0.0000000000000000e+00  1.5019511797115352e-03 -2.4723241697826112e-04 0.0000000000000000e+00  1.9249182120954913e-04 1.1069489508355552e-03 0.0000000000000000e+00  6.1151084010109156e-04 -1.0320940217494433e-04 0.0000000000000000e+00  2.1326016614454883e-03 -2.7286888961804574e-04 0.0000000000000000e+00  1.0099966037002538e-03 -5.4131372415449838e-04 0.0000000000000000e+00  1.3337754914848350e-03 9.0121375256780570e-04 0.0000000000000000e+00  5.0224586763908136e-03 -2.3787450455543388e-03 0.0000000000000000e+00  1.7180152347509102e-03 -1.8615139579093356e-03 0.0000000000000000e+00  2.2594069614634434e-03 -2.3688892820841255e-03 0.0000000000000000e+00  -3.0666735915909965e-03 5.7497048450812216e-03 0.0000000000000000e+00  1.6596871153305877e-03 4.5568581219346369e-06 0.0000000000000000e+00  1.3398387713170635e-03 -1.4895852900285956e-04 0.0000000000000000e+00  -1.3331618301365882e-03 3.3867275472764377e-03 0.0000000000000000e+00  2.5617845440050763e-03 7.7008186156960851e-05 0.0000000000000000e+00  1.4672872075755271e-03 2.0263674315902351e-04 0.0000000000000000e+00  5.7768001481710816e-03 -4.9263551185187377e-04 0.0000000000000000e+00  2.1180942832603761e-03 -2.9196595759728326e-03 0.0000000000000000e+00  2.0718455493315443e-03 -1.1114730571972443e-03 0.0000000000000000e+00  -3.3688935622820769e-05 -3.2241856351041199e-04 0.0000000000000000e+00  1.2816982250717240e-03 -4.3903020996932250e-05 0.0000000000000000e+00  3.9877257238048296e-03 5.5342609677851758e-04 0.0000000000000000e+00  1.6647533706550949e-03 -9.5116968913838012e-05 0.0000000000000000e+00  1.3006687364493520e-04 -4.4157211463573840e-04 0.0000000000000000e+00  1.7160951939691098e-03 -7.0201825155364629e-04 0.0000000000000000e+00  -3.0836805129630374e-04 1.5598234301840951e-04 0.0000000000000000e+00  1.5592545337036225e-03 8.8109141722848036e-05 0.0000000000000000e+00  1.5708223573233000e-03 7.3043542165199087e-06 0.0000000000000000e+00  4.4858118860970934e-03 -2.0523589391304468e-03 0.0000000000000000e+00  -5.1302670665127122e-04 -2.1313204468743903e-03 0.0000000000000000e+00  -1.5225166015654539e-03 -1.2441795008560907e-06 0.0000000000000000e+00  1.6980780005132997e-03 -1.1440268881396365e-03 0.0000000000000000e+00  7.7847191821265715e-04 8.1353031167141808e-04 0.0000000000000000e+00  2.2070783506931264e-03 -3.3693987340226248e-04 0.0000000000000000e+00  -1.0225234512472366e-06 -3.1406956805144057e-04 0.0000000000000000e+00  6.1052364373262794e-04 1.0426588113158694e-04 0.0000000000000000e+00  1.8894338378132431e-03 -3.2602960196292474e-04 0.0000000000000000e+00  2.1107286319275087e-03 -1.0739270606019255e-03 0.0000000000000000e+00  3.4689154374608032e-03 -9.6675870414504996e-04 0.0000000000000000e+00  2.0154935588537382e-03 -1.7812388766170377e-04 0.0000000000000000e+00  1.6386927756931401e-03 -7.6764935973282493e-05 0.0000000000000000e+00  3.1137756273074417e-03 -5.3259742840749009e-05 0.0000000000000000e+00  1.3522903959992416e-03 -2.1174639394877943e-05 0.0000000000000000e+00  1.8943913772064020e-03 7.0869589645829395e-04 0.0000000000000000e+00  2.0865980250967470e-03 -7.2743402738910043e-04 0.0000000000000000e+00  -8.9387829700054370e-04 1.6471437304563534e-03 0.0000000000000000e+00  -2.4162611585614542e-03 6.2510948347548197e-04 0.0000000000000000e+00  8.7117069390672472e-04 1.0513984090844983e-03 0.0000000000000000e+00  -1.5097385650205538e-03 -4.5701194464261235e-04 0.0000000000000000e+00  1.0988474541273859e-03 -3.8384124472793030e-04 0.0000000000000000e+00  2.3207473571163419e-03 -5.2001494818675943e-04 0.0000000000000000e+00  1.9446235499613149e-03 -2.4343339653892576e-04 0.0000000000000000e+00  -1.0345063686785813e-03 -7.7141407922882803e-04 0.0000000000000000e+00  -4.9008075760452084e-04 1.1351318033644545e-03 0.0000000000000000e+00  -6.2618001938091446e-04 1.4886668262483805e-03 0.0000000000000000e+00  1.6700480980011926e-03 -5.5566897613294275e-04 0.0000000000000000e+00  -3.1088965704523172e-03 7.3248781887783553e-04 0.0000000000000000e+00  -3.3073571656119520e-03 2.0140442300379739e-03 0.0000000000000000e+00  -7.2645600505528182e-04 1.8392157740149333e-03 0.0000000000000000e+00  2.1621597174955750e-03 -3.8901968543344633e-04 0.0000000000000000e+00  1.7024015482246880e-03 1.8156769652727897e-03 0.0000000000000000e+00  8.2121059875714386e-04 1.3013911610170667e-03 0.0000000000000000e+00  4.3430501255097799e-03 -1.6058794433237683e-03 0.0000000000000000e+00  1.3763306009759628e-03 -5.5888740548761017e-05 0.0000000000000000e+00  1.4050721657184492e-03 -1.6115422328934475e-03 0.0000000000000000e+00  -2.6282893512397805e-03 8.8538336357971235e-04 0.0000000000000000e+00  -1.7099418148177560e-03 1.2340213269124612e-03 0.0000000000000000e+00  -3.2557389260301660e-03 1.5267544924261801e-03 0.0000000000000000e+00  -3.0953760020936910e-04 3.3624251120279044e-04 0.0000000000000000e+00  1.9844237406555763e-03 6.9701267554379365e-04 0.0000000000000000e+00  4.9685293464791450e-04 6.9379978530277825e-04 0.0000000000000000e+00  2.9029501669624214e-04 2.7459052598351213e-04 0.0000000000000000e+00  9.4359520625065477e-04 2.5147403268306330e-04 0.0000000000000000e+00  7.6772695163670730e-05 -1.0680297020999568e-03 0.0000000000000000e+00  -5.4778204406426788e-04 -2.6643060828922081e-04 0.0000000000000000e+00  1.7902353364929635e-03 2.3753675739484675e-03 0.0000000000000000e+00  2.0990289662000646e-03 6.1507990684341019e-05 0.0000000000000000e+00  9.6280054531632875e-04 -5.5845227009184524e-04 0.0000000000000000e+00  2.9444384185008766e-04 9.7824384864280312e-04 0.0000000000000000e+00  3.7557728367472940e-03 -1.2476329181486841e-03 0.0000000000000000e+00  -6.0591308716688116e-04 -9.7182574444223025e-04 0.0000000000000000e+00  -1.2207174744349799e-03 -8.1298498943418703e-04 0.000000000000