<?xml version="1.0"?>
<VTKFile type="UnstructuredGrid"  version="0.1"  >
<UnstructuredGrid>
<Piece  NumberOfPoints="1385" NumberOfCells="2640">
<Points>
<DataArray  type="Float64"  NumberOfComponents="3"  format="ascii">0 0 0  1 0 0  1 1 0  0 1 0  0.5 0 0  1 0.5 0  0.5 1 0  0 0.5 0  0.5 0.5 0  0 0.25 0  0.25 0 0  0.25 1 0  0 0.75 0  1 0.25 0  0.75 0 0  1 0.75 0  0.75 1 0  0.7083333333333333 0.2916666666666667 0  0.2916666666666666 0.7083333333333334 0  0.375 0.25 0  0.75 0.625 0  0.2569444444444444 0.4652777777777778 0  0.5366379310344828 0.7535919540229885 0  0.1875 0.1875 0  0.8125 0.8125 0  0.869047619047619 0.375 0  0.1450441919191919 0.6052714646464646 0  0.375 0.8690476190476191 0  0.5526960784313725 0.1825980392156862 0  0.8385416666666666 0.1614583333333334 0  0.1614583333333333 0.8385416666666667 0  0.6736111111111112 0.4652777777777778 0  0.1367521367521368 0.3477564102564102 0  0.6570970491253563 0.8648656830417855 0  0.5102479397556124 0.3386260301221938 0  0.3654513888888889 0.5737847222222222 0  0.6929750044954185 0.1362784921584263 0  0.388576102743835 0.411911725237599 0  0.6091269841269842 0.5942460317460317 0  0.875 0.6875 0  0.427278890279516 0.119889445139758 0  0.8544456845238095 0.5213913690476191 0  0.125 0 0  0 0.125 0  1 0.875 0  0.875 1 0  0.1280008648150532 0.4769292340226777 0  0.2695382451711197 0.3321750950221553 0  0.7031567235715964 0.7447810921428012 0  0.625 0 0  0.375 0 0  0.125 1 0  0.875 0 0  0 0.375 0  0 0.625 0  1 0.375 0  0.375 1 0  1 0.125 0  0 0.875 0  0.625 1 0  1 0.625 0  0.2979288363930608 0.1201429454643536 0  0.410919540229885 0.7484605911330049 0  0.5325041980395562 0.878905151526474 0  0.4831670727569156 0.6331060043826487 0  0.1735997378973042 0.7204747378973043 0  0.2534919507575758 0.5772372159090909 0  0.2633928571428572 0.8876488095238095 0  0.8199404761904761 0.2730654761904762 0  0.75830270586982 0.3919383189517417 0  0.5750282248382511 0.4237522353023667 0  0.6008360210023379 0.2794828358598495 0  0.08163442644334186 0.6821295860397322 0  0.08333333333333333 0.1875 0  0.2028380815996574 0.08844602719988583 0  0.2766521142611967 0.2325436572164097 0  0.90625 0.78125 0  0.890625 0.890625 0  0.7545696325008384 0.8973565441669461 0  0.5625 0.08086590340834317 0  0.09077380952380953 0.09077380952380952 0  0.4610923478694773 0.209034015149656 0  0.7542527598351648 0.5248380520595106 0  0.6459235536037465 0.3619913988405765 0  0.7560381768882634 0.20506142233852 0  0.07073252688172042 0.8125 0  0.0924753097241701 0.9078102849914793 0  0.9292674731182795 0.1875 0  0.9075246902758297 0.09218971500852073 0  0.8125 0.07073252688172045 0  0.2400955776842301 0.7869705776842302 0  0.9121050213379069 0.2781978201831695 0  0.7916878157143976 0.7239689078571988 0  0.9345238095238094 0.4375 0  0.4375 0.9345238095238095 0  0.3725616989755203 0.6651895248862173 0  0.06536271996350887 0.5625 0  0.9348362560379583 0.5625 0  0.456646798987055 0.8277247094351965 0  0.1875 0.9355758238725954 0  0.6169761231634859 0.6939779188977889 0  0.6226854751147515 0.7827911461419014 0  0.3305695598137626 0.7901697871282585 0  0.5865305325818898 0.5101085479043448 0  0.6622701297028378 0.2177663989757395 0  0.1354166666666667 0.2591702279202279 0  0 0.3125 0  0.2094429575680048 0.3936361846162499 0  0.836666296419157 0.607917407161686 0  0.6875 1 0  0.214261555450504 0.6492551722020035 0  0 0.4375 0  0.07731537126068377 0.40625 0  0.3427725432967068 0.4879566233699599 0  0.3550792513951871 0.3331953632609953 0  0.4462473953896857 0.2887834789342508 0  0.4747801464819794 0.417386052030127 0  0.8229836475148948 0.4443292349237342 0  0.7322605135514757 0.8199240278289671 0  0.6756431877205955 0.5468989748126787 0  0.1968419507215863 0.5194573482612496 0  0.3285590277777778 0.9345238095238095 0  0.8125 1 0  0.4198917601920009 0.5134893045331258 0  0.5232405503206691 0.2595791787880157 0  1 0.9375 0  0.1987510870015086 0.3025185951894431 0  0.5625 1 0  0.6005390654136388 0.9228110509230952 0  0.6411254848194414 0.07704872765442942 0  0.3357233162523242 0.1855113224530532 0  0.6730653396610877 0.6393887462324165 0  0.310966987234063 0.6240019765311626 0  0.7368737836204349 0.07457755202327881 0  0.6192316414418171 0.1485238406378594 0  0.5432429670607106 0.678552703844006 0  0.4754371679695679 0.7103946803120881 0  0.07501324890749672 0.3043839897335739 0  0.5358146975860403 0.5688321463205916 0  0.3115271739500156 0.3982137365971444 0  0.3625191397122174 0.0767854603650549 0  0.5024029442563831 0.1264128223758444 0  0.4375 0 0  0.4699946908887376 0.06379961173775725 0  0.9375 0.71875 0  0.9272105898044465 0.635671179608893 0  0.9375 1 0  0.6690971819568612 0.9331530898202766 0  0.1073454944778885 0.7499206387638554 0  0.8699082999280406 0.2232403652524313 0  0.5773118091863964 0.3548027349159383 0  0.1354166666666667 0.1428571428571428 0  0.3125 0 0  0.8241684193077341 0.9257452995055244 0  0.4352314948354036 0.3586940847489378 0  0.4351301473778832 0.5819726043539077 0  0.8073232928518163 0.3419398170341962 0  0.7775949246947366 0.1298519409204575 0  0.6875 0 0  0.7413513991851041 0.457933324954483 0  0.939453125 0.841796875 0  0.5630355154606987 0.8171875156478349 0  0.9345238095238095 0.3461466592368577 0  0.9375 0 0  1 0.0625 0  0.0625 1 0  0 0.9375 0  0.06552178593177167 0.4969053669623468 0  0.1424866619031703 0.4130277709291224 0  0.1275287182444726 0.5422946908002588 0  0.2637686595586339 0.06413888464529549 0  0.2524263535491086 0.1697437503243817 0  0.7367218397988525 0.6888573970660841 0  0.0625 0 0  0 0.0625 0  0.8463594539285995 0.7578283617857982 0  0.3128751192101563 0.2851997374369947 0  0.4015281788351144 0.1806421385113692 0  0.1910251795116588 0.4553332197174453 0  0.287797471442006 0.5222621440543902 0  0.3962628745986055 0.8097380085535307 0  0.3505895299554843 0.7304878890838692 0  0.5019151500495276 0.9356042615328103 0  0.9374389419410134 0.4999931039076005 0  0.3125 1 0  0.1875 1 0  1 0.5625 0  0.4375 1 0  1 0.3125 0  1 0.4375 0  0.8125 0 0  1 0.1875 0  0.5625 0 0  0.1875 0 0  0 0.1875 0  0 0.5625 0  0 0.6875 0  0 0.8125 0  1 0.6875 0  1 0.8125 0  0.8021696218581627 0.6612893947866073 0  0.06154922295426143 0.6239401126946708 0  0.9359375 0.9359375 0  0.4666158024849896 0.7691515918155014 0  0.2318201265217025 0.7064974250277525 0  0.1565954253579966 0.6635489312486841 0  0.1598132503680848 0.7787147500325552 0  0.3146529991605639 0.8510876378205265 0  0.1461873209418733 0.05982804528877814 0  0.06109554988524315 0.2446551776247686 0  0.8054950308560754 0.5564226538848541 0  0.470541749491976 0.8853316336952531 0  0.6948472567465137 0.4042308563372457 0  0.8802828472348889 0.4658893256343853 0  0.6788075634946739 0.7974194205806069 0  0.2155048659603867 0.2428201584940968 0  0.8131223143423806 0.2132171049028394 0  0.4330798005432235 0.6671274900735726 0  0.6015279126162613 0.2187368078743274 0  0.8061636571464289 0.8703766630361714 0  0.7008230445061776 0.3478568388444072 0  0.8638466246958771 0.3147095987735538 0  0.204801534004265 0.8789209409594009 0  0.2449006736431132 0.9424182882803838 0  0.7611268409371427 0.2643056884799992 0  0.7552800864046191 0.7678006649959446 0  0.5983639638906616 0.864113435029236 0  0.1956559506814437 0.577281203577426 0  0.3527670268164207 0.1320469097565204 0  0.7530364577483248 0.3262386077083089 0  0.4535919187979363 0.4690107087451527 0  0.8824869791666666 0.8336588541666666 0  0.8814453125 0.9451171875 0  0.5582987942628019 0.622421666543858 0  0.6817532446064828 0.6939001801354731 0  0.3830295138888889 0.9450968952922078 0  0.4140603937012541 0.05211333372716105 0  0.5535864501303013 0.3060591985391672 0  0.6560130086346878 0.2729726562211558 0  0.890203140221684 0.5948314305427268 0  0.7043857725999024 0.593980890020804 0  0.5105843922695152 0.8016828014338627 0  0.05365910753708378 0.7315110031682004 0  0.616904573672261 0.4621186633436136 0  0.5338511646455415 0.387875898899613 0  0.5231769258947843 0.4477682463140762 0  0.650302973237622 0.7370722302085519 0  0.3927483139621257 0.4662414504529014 0  0.8034595960585199 0.4972538342758211 0  0.7738337841682438 0.9496376207663251 0  0.7193737507158268 0.954685447650112 0  0.482525916480686 0.5528257169991676 0  0.2533501157346781 0.2809495420003238 0  0.3118487924482243 0.5702930126570319 0  0.6257598847669529 0.4104163315430518 0  0.1354166666666667 0.1955605158730158 0  0.04166666666666666 0.15625 0  0.3956448985530264 0.6174149462065157 0  0.8102897701818546 0.3938784238208349 0  0.2641154190013625 0.8344469561943118 0  0.642852220770013 0.5068794586563659 0  0.05271458179508221 0.355846947336007 0  0.7021551360070266 0.8921457280225779 0  0.5692125776683765 0.1328512638850284 0  0.5206162811937602 0.04865158770992991 0  0.6001838442201555 0.04540556991297563 0  0.2597716608242787 0.4118346398477178 0  0.4040584599473195 0.3179589136784675 0  0.1480337679295207 0.8941560631483065 0  0.1344356707112281 0.9466251177415842 0  0.7114696411829317 0.4983917389078826 0  0.7585704698442475 0.5751926345944629 0  0.2189131956390871 0.04022068508159698 0  0.2476935455192043 0.1123642267635843 0  0.185995005654517 0.1365524537205238 0  0.6223414373308711 0.643380839165121 0  0.5732602596637543 0.7190051747306219 0  0.268358222364537 0.6586246524467934 0  0.3265879848129173 0.2369791782191225 0  0.1267095595787346 0.7034787238999181 0  0.1115202922226038 0.6421997933884982 0  0.3128688392940203 0.07260997451790079 0  0.550724900485678 0.9253360991633187 0  0.7142608810459105 0.2384904702214873 0  0.7045869185243887 0.1871826897887429 0  0.890625 0.734375 0  0.953125 0.765625 0  0.2111812642821677 0.8286209446459138 0  0.9590293078204457 0.09375 0  0.953431269039847 0.1435719386408004 0  0.04097069217955424 0.90625 0  0.04656873096015299 0.8564280613591996 0  0.1078743037981226 0.8541621766048062 0  0.8921256962018773 0.1458378233951939 0  0.8521576979194619 0.1084496634207678 0  0.8655663982740958 0.05464346096571447 0  0.04005659640905543 0.09375 0  0.1001448316533417 0.04246776244228261 
[...]
<PointData  Vectors="f_8604-1"> 
<DataArray  type="Float64"  Name="f_8604-1"  NumberOfComponents="3" format="ascii">5.0466942961092656e-03 8.4519429796922566e-03 0.0000000000000000e+00  -1.0292535520234397e-03 1.5998941450248586e-03 0.0000000000000000e+00  7.9052420187385782e-05 2.0538827063415355e-03 0.0000000000000000e+00  -2.1264691669454399e-04 -3.9276578078934902e-03 0.0000000000000000e+00  -2.5189188508285268e-03 3.9559958039420574e-03 0.0000000000000000e+00  6.6405011387355567e-04 2.0380792696088627e-04 0.0000000000000000e+00  -7.2021162362266854e-05 2.2708355007100214e-05 0.0000000000000000e+00  -1.0812851387897995e-03 2.0687882868214839e-03 0.0000000000000000e+00  1.1908458617680890e-04 -2.2642078018740032e-04 0.0000000000000000e+00  -1.2930681760915375e-03 4.8132877547459553e-03 0.0000000000000000e+00  -3.6790458370144523e-03 5.5698860924454086e-03 0.0000000000000000e+00  8.7304220589999604e-04 -1.5710063452104373e-03 0.0000000000000000e+00  9.9296498143612100e-05 3.8152247447355964e-04 0.0000000000000000e+00  3.4933310918720676e-04 -9.7420568935024520e-04 0.0000000000000000e+00  -8.8046450134299497e-04 2.9275131373920470e-03 0.0000000000000000e+00  -9.5686296977983402e-05 6.6592755560375807e-04 0.0000000000000000e+00  -1.4142704207849164e-04 8.6509738638025169e-04 0.0000000000000000e+00  -5.4563995533262410e-04 1.5116656341246973e-03 0.0000000000000000e+00  -1.2316011102672020e-03 2.1653694809133242e-03 0.0000000000000000e+00  1.9048460506610296e-03 -1.5109293731874628e-03 0.0000000000000000e+00  1.9504450183650140e-04 -5.0128303515585256e-04 0.0000000000000000e+00  2.8801530142840200e-03 -6.7148176453406339e-03 0.0000000000000000e+00  -4.1714338540859846e-04 3.6782512158786831e-04 0.0000000000000000e+00  2.1703732490427628e-04 -3.3779058473037693e-03 0.0000000000000000e+00  -1.9353623211396028e-04 -1.3519819966028226e-05 0.0000000000000000e+00  -1.9414341239035770e-04 3.5147480802229757e-04 0.0000000000000000e+00  2.7736431421210094e-04 -3.4151388841005973e-03 0.0000000000000000e+00  -1.2061566159815432e-03 6.6378261428471665e-04 0.0000000000000000e+00  -3.1784847172503254e-04 8.8330611157952117e-04 0.0000000000000000e+00  6.0401660924902533e-04 2.3019439467930453e-03 0.0000000000000000e+00  -3.7700709833400040e-04 -8.5741410864467011e-04 0.0000000000000000e+00  1.9843139194374411e-04 2.3418750067503991e-03 0.0000000000000000e+00  5.3234776166188197e-04 1.4439348792024815e-03 0.0000000000000000e+00  -5.3713578206924118e-05 4.3845175073506880e-04 0.0000000000000000e+00  1.8161233645135218e-04 -1.6751239086866411e-03 0.0000000000000000e+00  -1.1344139943625787e-03 2.7268660943121797e-03 0.0000000000000000e+00  -1.8013067695262265e-03 -3.5809140546567914e-03 0.0000000000000000e+00  -1.2293678670665844e-03 7.8793815953304223e-04 0.0000000000000000e+00  7.5134538118403914e-04 2.0745440555502001e-03 0.0000000000000000e+00  -9.7857127893602469e-05 1.6142264875566089e-04 0.0000000000000000e+00  -1.0667178825799119e-03 4.7843748447362793e-03 0.0000000000000000e+00  2.4097252179300618e-04 8.3495754850232537e-04 0.0000000000000000e+00  -1.7576658705116292e-03 4.5294978346105243e-03 0.0000000000000000e+00  1.5132456964224413e-03 -1.8926487577010946e-03 0.0000000000000000e+00  5.6967558747083430e-05 8.1021974234803573e-04 0.0000000000000000e+00  -6.0891443530137525e-04 1.5270070900295757e-03 0.0000000000000000e+00  -7.2319326604965357e-04 -1.7055327558525453e-04 0.0000000000000000e+00  2.9140367920376395e-03 4.3673877922591870e-04 0.0000000000000000e+00  3.0787397715118658e-04 -1.5775708034862040e-05 0.0000000000000000e+00  -9.3972894892648158e-05 5.9834318047565426e-03 0.0000000000000000e+00  -1.0607371229090436e-03 2.0412086790551811e-03 0.0000000000000000e+00  5.8612187871554693e-04 -1.3625818263200595e-03 0.0000000000000000e+00  -5.6391438768255283e-04 2.3176464372966620e-03 0.0000000000000000e+00  4.8257532121110096e-04 3.6707590760461034e-03 0.0000000000000000e+00  -2.3586117728439091e-04 4.9217858162692273e-03 0.0000000000000000e+00  8.2026084851887686e-05 -4.2518812352099173e-04 0.0000000000000000e+00  3.9495844271532110e-04 -1.9486142300623303e-03 0.0000000000000000e+00  8.3214480815164103e-04 -8.0285347193176241e-04 0.0000000000000000e+00  -7.3466135092798725e-04 1.4911300458333586e-03 0.0000000000000000e+00  7.0895685431299465e-05 4.8023310151220017e-04 0.0000000000000000e+00  -1.1432229589061973e-04 2.4335437393481995e-04 0.0000000000000000e+00  -3.0440852353936167e-03 4.3393792263825819e-03 0.0000000000000000e+00  1.1868755673863573e-03 -1.7164302708417047e-03 0.0000000000000000e+00  3.5305283973469781e-04 4.9978926808189603e-05 0.0000000000000000e+00  5.0486334947009201e-04 -2.5935147065875145e-03 0.0000000000000000e+00  -9.4757567112076137e-04 2.1789619171410897e-03 0.0000000000000000e+00  1.1633928763215933e-04 1.3462361554615373e-03 0.0000000000000000e+00  1.6597035087055428e-03 -2.5689761259187018e-03 0.0000000000000000e+00  1.5038782728430699e-04 -3.5475484759036283e-03 0.0000000000000000e+00  -1.9723775215510064e-03 5.0380401025876883e-04 0.0000000000000000e+00  -1.4430635701490906e-03 9.3367546835618253e-04 0.0000000000000000e+00  -8.9968929858875459e-04 1.5815972666174431e-03 0.0000000000000000e+00  -1.7531917843888190e-04 -2.9941913624845500e-03 0.0000000000000000e+00  3.6207607688249703e-04 -1.3667968997299028e-03 0.0000000000000000e+00  -6.0849899885534865e-04 -8.2775004849197226e-03 0.0000000000000000e+00  -1.6971650337330769e-03 3.7850088852714810e-03 0.0000000000000000e+00  -1.1925571310748637e-04 -5.5627371215366951e-04 0.0000000000000000e+00  -6.2017900576790753e-05 1.3002178650704716e-03 0.0000000000000000e+00  -1.0207929727613570e-04 -3.7308990669366698e-04 0.0000000000000000e+00  7.5412177554848986e-04 -2.8931766538332114e-03 0.0000000000000000e+00  -1.0285841858233538e-03 6.4748486369127912e-04 0.0000000000000000e+00  8.5409726475479389e-04 -1.8181475943800985e-03 0.0000000000000000e+00  -2.4340119026974405e-04 1.4078657189784186e-03 0.0000000000000000e+00  4.7820134107273422e-04 9.6481936713021296e-04 0.0000000000000000e+00  -6.1325679088744208e-05 6.6643499468322536e-04 0.0000000000000000e+00  -1.3443284958725367e-03 -1.8761055133033122e-04 0.0000000000000000e+00  1.1004586761284697e-03 -2.4209157506786430e-03 0.0000000000000000e+00  -2.7709246683773584e-04 1.3801629872628035e-03 0.0000000000000000e+00  1.1415788863192414e-03 -1.3504784041815431e-03 0.0000000000000000e+00  -1.4490234788084322e-03 4.5102763884270834e-04 0.0000000000000000e+00  9.8421345413417542e-04 -2.7095479202078675e-03 0.0000000000000000e+00  1.4033798175643285e-03 5.8331970458479589e-04 0.0000000000000000e+00  -1.7290856820053088e-06 1.4989335637540852e-04 0.0000000000000000e+00  -4.6504770571603748e-04 2.0525135149513765e-04 0.0000000000000000e+00  -4.8522276802489330e-04 7.7685522908893675e-05 0.0000000000000000e+00  3.1090700682139612e-04 -1.9376351156572243e-03 0.0000000000000000e+00  -1.2183073286679488e-05 -5.1213682061675980e-03 0.0000000000000000e+00  -3.9542148234451781e-04 2.1134694496555389e-05 0.0000000000000000e+00  -6.9824456405946026e-04 -2.6002144674478286e-04 0.0000000000000000e+00  -2.8811265616357192e-04 -3.9015573720373203e-04 0.0000000000000000e+00  1.0376942244703116e-04 9.3921682034571355e-04 0.0000000000000000e+00  -1.5198002893250398e-04 -1.2070146939333365e-03 0.0000000000000000e+00  -4.2337196343269047e-04 1.0674959005740423e-03 0.0000000000000000e+00  -4.6435732294162758e-04 1.7189831405397267e-03 0.0000000000000000e+00  1.3095217373442546e-03 7.9364424932352415e-05 0.0000000000000000e+00  4.2985092646938977e-04 2.4328647027844546e-03 0.0000000000000000e+00  -1.2511903498503066e-03 1.9727166329236191e-03 0.0000000000000000e+00  -1.2425678914252359e-03 3.1971958058528284e-03 0.0000000000000000e+00  -2.0405461190695253e-04 6.5369960784401892e-04 0.0000000000000000e+00  -2.1902169526629225e-04 3.9843265235955428e-04 0.0000000000000000e+00  1.1044829969734105e-03 -6.5531756351867561e-04 0.0000000000000000e+00  3.5829836304557979e-03 -1.0325304812930322e-03 0.0000000000000000e+00  -2.0576098429139055e-03 3.9953175183870572e-03 0.0000000000000000e+00  -5.2054174394591520e-04 -4.5149262270087719e-03 0.0000000000000000e+00  -1.9309494746988362e-03 -1.0526479559755575e-03 0.0000000000000000e+00  -5.9508122273831641e-04 -1.0137643205759723e-03 0.0000000000000000e+00  7.5640783362210338e-04 4.9611237649743187e-03 0.0000000000000000e+00  -2.0113856519711314e-04 -1.3320739221059227e-03 0.0000000000000000e+00  -2.0098607073475240e-05 2.0048319180296511e-04 0.0000000000000000e+00  -8.9776715239804183e-04 1.3295025461769903e-03 0.0000000000000000e+00  -1.9213573937103318e-03 -2.0009774960431684e-04 0.0000000000000000e+00  3.4230128275491642e-04 -1.0162522914853465e-03 0.0000000000000000e+00  -3.2638583826665596e-04 2.0595234473749511e-03 0.0000000000000000e+00  -3.6947138803628980e-04 -5.0477820356744675e-04 0.0000000000000000e+00  2.3950250242296819e-03 -2.9328567377114542e-03 0.0000000000000000e+00  9.1295984018922903e-05 1.4898548713263191e-03 0.0000000000000000e+00  -1.1337473383743113e-03 2.5475598745362772e-04 0.0000000000000000e+00  2.6991922693567337e-05 6.6800248075281940e-05 0.0000000000000000e+00  5.2202286535257915e-06 1.0269880705399874e-04 0.0000000000000000e+00  -1.4810210614313759e-03 1.4488018080483056e-03 0.0000000000000000e+00  1.7140940187004984e-03 -1.7335430066207727e-03 0.0000000000000000e+00  -3.6466063253564495e-05 -5.3246324256654904e-04 0.0000000000000000e+00  4.7643686576504657e-04 -1.8454405864243516e-03 0.0000000000000000e+00  -6.0149785245386628e-04 3.7279862693096587e-03 0.0000000000000000e+00  -4.2996670938869651e-03 1.8280019298891753e-03 0.0000000000000000e+00  -6.9888116060635454e-04 1.4090562096528312e-03 0.0000000000000000e+00  -1.5054099775624601e-04 3.1417980331364353e-03 0.0000000000000000e+00  -6.0884061157335698e-04 3.3374427304172141e-03 0.0000000000000000e+00  -3.4520213028555239e-04 -1.0599653712616770e-03 0.0000000000000000e+00  -1.4468654392225120e-04 2.5199828157491519e-03 0.0000000000000000e+00  3.2258769807865665e-03 3.9905499049650928e-04 0.0000000000000000e+00  -7.8980317193549693e-04 -9.8417841240112176e-04 0.0000000000000000e+00  -1.7214271403044581e-03 5.9067910779376171e-03 0.0000000000000000e+00  5.8117210031191696e-03 -3.3451827125318416e-03 0.0000000000000000e+00  -7.6470462177371635e-06 3.8926927964055851e-04 0.0000000000000000e+00  4.9813031589780104e-06 1.5308163027903925e-04 0.0000000000000000e+00  -3.7401094352300130e-04 2.9685820893524091e-03 0.0000000000000000e+00  4.3295460856435612e-05 -8.5265458942577549e-05 0.0000000000000000e+00  2.5097620909162932e-03 -3.4098834934458457e-03 0.0000000000000000e+00  2.2880542824391058e-03 -3.2111643749498649e-03 0.0000000000000000e+00  -9.5381168197741393e-05 3.3698347829566396e-03 0.0000000000000000e+00  -2.1688404665188912e-03 4.6969727148807178e-03 0.0000000000000000e+00  -1.2898065787472798e-03 6.6768769462772527e-03 0.0000000000000000e+00  2.5909118492086771e-04 8.2159928896234483e-04 0.0000000000000000e+00  -5.4613361168051261e-03 1.3791992068751637e-04 0.0000000000000000e+00  -3.8905477689673548e-04 2.3085138996920232e-04 0.0000000000000000e+00  -2.4593863377470618e-05 1.3487909436680850e-03 0.0000000000000000e+00  -9.4904194834866877e-04 1.1237180182273898e-03 0.0000000000000000e+00  9.9194339659355217e-04 5.4357756736065476e-03 0.0000000000000000e+00  -3.8271546626832484e-04 -9.4738602127939799e-04 0.0000000000000000e+00  3.7056755460410524e-04 -4.1006734476870102e-04 0.0000000000000000e+00  1.9094977534860909e-04 -3.9182883801760062e-04 0.0000000000000000e+00  5.5578290708305960e-04 -1.0935349620513190e-03 0.0000000000000000e+00  -8.9073727601423919e-04 1.8345658805163829e-03 0.0000000000000000e+00  1.0854820940253917e-03 -1.9113129774063413e-03 0.0000000000000000e+00  1.0703027037291973e-03 -1.6879530037168858e-03 0.0000000000000000e+00  1.3212411523251346e-03 -8.7979945755227516e-04 0.0000000000000000e+00  7.2068532597224684e-03 1.4552002587264112e-03 0.0000000000000000e+00  4.4623568175795637e-03 -4.0224344812085401e-03 0.0000000000000000e+00  2.1202108263211747e-03 -5.6509647727105324e-03 0.0000000000000000e+00  -1.6852197833772541e-03 3.1326039238598995e-03 0.0000000000000000e+00  -1.1598812767946165e-04 5.5357954499285385e-03 0.0000000000000000e+00  2.9985810077033892e-04 8.9741005368838627e-04 0.0000000000000000e+00  -1.5481581387514918e-03 4.3685062877699184e-03 0.0000000000000000e+00  2.6359899518607639e-03 -9.2889680039046942e-04 0.0000000000000000e+00  -8.3372755370136301e-05 2.2693072746088409e-04 0.0000000000000000e+00  1.1114108266625988e-03 -1.1072805155410957e-03 0.0000000000000000e+00  7.0383574327450454e-04 1.6442758656726991e-03 0.0000000000000000e+00  2.4083350289624801e-03 -2.5663048663052026e-03 0.0000000000000000e+00  1.3377728295137052e-03 -3.2372131473096788e-03 0.0000000000000000e+00  8.2708529823325534e-04 2.6325339853734112e-04 0.0000000000000000e+00  -6.6583548640962377e-04 -5.5537799435787004e-04 0.0000000000000000e+00  6.2536496267082402e-04 -3.3183677856209496e-04 0.0000000000000000e+00  -1.0728739037643093e-04 6.2259005146966622e-04 0.0000000000000000e+00  8.5127872772239679e-04 -1.1178269706538378e-03 0.0000000000000000e+00  3.8033426219573634e-04 -1.3446516107862344e-03 0.0000000000000000e+00  -2.6686225505411526e-05 8.5128517567284700e-05 0.0000000000000000e+00  1.3318516195739465e-04 -1.1186661328459577e-03 0.0000000000000000e+00  4.4574810190230500e-04 -6.4223429010508903e-04 0.0000000000000000e+00  5.7887058361081288e-04 -5.4241150060063421e-04 0.0000000000000000e+00  -5.3788327286527016e-04 3.5676425947378191e-03 0.0000000000000000e+00  8.2551634742420766e-04 -1.1755717820987638e-03 0.0000000000000000e+00  -1.3315637535628502e-03 5.1878485618849467e-03 0.0000000000000000e+00  6.7444795519233723e-04 7.5561538988836840e-03 0.0000000000000000e+00  -3.3152446402999114e-03 1.8529973731429901e-03 0.0000000000000000e+00  -3.4880036587614516e-04 3.2841324857418161e-03 0.0000000000000000e+00  3.1429953818217205e-03 -1.6838844382000341e-03 0.0000000000000000e+00  -3.3852593959417168e-03 4.7325989463875354e-03 0.0000000000000000e+00  -1.7219996286545127e-04 3.8606944684901488e-04 0.0000000000000000e+00  1.5584492614181884e-04 9.7570928717329670e-04 0.0000000000000000e+00  -7.5871703815474727e-04 5.0663583409583230e-04 0.0000000000000000e+00  1.3672509087664039e-03 -5.9175606255646128e-03 0.0000000000000000e+00  -1.0201169512820993e-04 -1.0787449641634337e-03 0.0000000000000000e+00  -5.6847951510738127e-05 1.4869393124154915e-03 0.0000000000000000e+00  -1.3012494863752645e-03 6.6469282341401128e-04 0.0000000000000000e+00  1.8370945713083128e-03 -2.4464941832597151e-03 0.0000000000000000e+00  4.5825123219854795e-04 -2.0834015608159833e-04 0.0000000000000000e+00  -9.4147657938298604e-04 2.0776974857673816e-05 0.0000000000000000e+00  -1.2346600356225998e-03 3.9966616869850785e-03 0.0000000000000000e+00  2.8166556477522433e-03 -8.4440263823033789e-04 0.0000000000000000e+00  -2.4986757887398691e-04 4.4011448506757397e-04 0.0000000000000000e+00  -4.8080636348766007e-04 -3.7482642920510888e-04 0.0000000000000000e+00  -5.7702616868280927e-04 3.5404690477515350e-03 0.0000000000000000e+00  2.7771134735026339e-04 1.4724309646892244e-03 0.0000000000000000e+00  3.3658172866199334e-04 2.6955558312713462e-04 0.0000000000000000e+00  -1.6321086689800393e-03 2.6637480838952645e-03 0.0000000000000000e+00  -1.1188954769468940e-03 -1.6578364089086862e-03 0.0000000000000000e+00  -1.2485941625136527e-03 7.4500312157833892e-05 0.0000000000000000e+00  -2.9877575105043174e-04 3.9143521256233722e-03 0.0000000000000000e+00  -2.2797172564799329e-04 -7.9389196386029409e-05 0.0000000000000000e+00  6.0460453279569300e-04 3.6566799798836932e-03 0.0000000000000000e+00  -6.8420555195700485e-04 8.8210693882110160e-04 0.0000000000000000e+00  -6.5623173623082171e-04 2.6374586785580171e-03 0.0000000000000000e+00  -1.0868538426479935e-03 2.5787581112930507e-04 0.0000000000000000e+00  4.9681402360895251e-04 -7.5911502300432141e-04 0.0000000000000000e+00  -2.6236373197081539e-05 1.6710402218783336e-04 0.0000000000000000e+00  2.0265625134098828e-04 -3.8997693181333574e-05 0.0000000000000000e+00  2.2704687603155281e-04 2.7988809154415334e-04 0.0000000000000000e+00  -1.2054207162677864e-03 2.4071376784959757e-03 0.0000000000000000e+00  5.0500585169656646e-04 -2.7586827920120147e-03 0.0000000000000000e+00  -6.8657197394305313e-04 1.4280426113930933e-03 0.0000000000000000e+00  -1.0587104830165950e-05 3.7317965185277473e-04 0.0000000000000000e+00  -1.2919529735776849e-03 1.7779222987960390e-03 0.0000000000000000e+00  1.4427932050675967e-04 -1.0548214341414581e-03 0.0000000000000000e+00  2.1199091259600623e-04 3.3555123611101004e-04 0.0000000000000000e+00  3.1442781687721235e-04 4.3626386716039221e-04 0.0000000000000000e+00  2.8263669432629103e-03 6.8130450672011962e-03 0.0000000000000000e+00  -8.6091021382498191e-04 2.1788743195625070e-03 0.0000000000000000e+00  -8.2009336713937992e-04 -2.2135501695415140e-03 0.0000000000000000e+00  -4.7571214949295270e-05 3.4647669976653695e-04 0.0000000000000000e+00  -6.1414566123950214e-05 1.7612004144487144e-03 0.0000000000000000e+00  -4.8826200011630193e-05 -8.7754579515959981e-04 0.0000000000000000e+00  -7.5670969934025383e-04 -2.4097939654752843e-04 0.0000000000000000e+00  -1.1791435230020851e-03 9.5577424588750399e-04 0.0000000000000000e+00  6.4053474248721104e-04 -2.3077531901384805e-03 0.0000000000000000e+00  2.7857296066412032e-03 -2.7168561558846456e-03 0.0000000000000000e+00  3.2635687981962143e-04 -6.7907384570926313e-04 0.0000000000000000e+00  -3.1716342892709087e-04 -4.1528863414215435e-05 0.0000000000000000e+00  -4.4923943798700120e-04 5.6432986558469346e-04 0.0000000000000000e+00  -1.0806274247255910e-04 1.1955972358867831e-04 0.0000000000000000e+00  -1.2157112199756475e-04 2.6660188164665791e-04 0.0000000000000000e+00  -3.0992201238747913e-03 2.8303674187058507e-03 0.0000000000000000e+00  -1.8101670544248543e-03 6.0133736283101147e-03 0.0000000000000000e+00  -1.7824824717258445e-04 -3.5681304829561864e-03 0.0000000000000000e+00  -1.7871190917698166e-03 3.0989133247264740e-03 0.0000000000000000e+00  -1.8348383469656753e-05 -5.3888118826208213e-03 0.0000000000000000e+00  4.4901503287732751e-03 -4.4316778495146559e-03 0.0000000000000000e+00  6.5437707620502226e-04 1.0818445213338053e-03 0.0000000000000000e+00  -1.0567649456199018e-04 3.0261804799228381e-04 0.0000000000000000e+00  1.0405227999144295e-03 -1.1850316290878068e-03 0.0000000000000000e+00  2.5539442630310820e-04 -2.2560663797827011e-03 0.0000000000000000e+00  -1.8179085808458749e-03 1.5306677075141543e-03 0.0000000000000000e+00  -7.9577165025446190e-05 1.8084959389797446e-04 0.0000000000000000e+00  -5.6913801831626589e-04 -4.7733570161463054e-03 0.0000000000000000e+00  3.5056357733135139e-03 -1.7128570269037412e-04 0.0000000000000000e+00  -7.7693703625543453e-05 -2.0321851650558481e-03 0.0000000000000000e+00  1.5484034965101878e-03 -7.1041794816342901e-03 0.0000000000000000e+00  7.4171542765787981e-04 1.0245590017053821e-03 0.0000000000000000e+00  -3.6908007213904347e-04 2.3988607675033964e-03 0.0000000000000000e+00  5.2328383866193952e-04 -1.3147188812655981e-03 0.0000000000000000e+00  1.9148741396205465e-03 -1.6629119977947990e-04 0.0000000000000000e+00  -4.2257727003455943e-05 -6.4004726110648206e-04 0.0000000000000000e+00  -3.3016330790499883e-03 6.7361870073062730e-03 0.0000000000000000e+00  1.2130115431593013e-04 3.2166667556632251e-03 0.0000000000000000e+00  1.2952654567717108e-03 7.3470766709405480e-03 0.0000000000000000e+00  1.2116296976828583e-04 -7.0374259377029469e-04 0.0000000000000000e+00  8.6128185240665024e-05 2.8478764711883345e-04 0.0000000000000000e+00  1.5851739694694596e-03 -1.1982810001585874e-03 0.0000000000000000e+00  2.8907959905883512e-06 -3.4689738704577698e-04 0.0000000000000000e+00  -1.8749722081037759e-04 3.7323511348658577e-04 0.0000000000000000e+00  -8.762915785