<?xml version="1.0"?>
<VTKFile type="UnstructuredGrid"  version="0.1"  >
<UnstructuredGrid>
<Piece  NumberOfPoints="1385" NumberOfCells="2640">
<Points>
<DataArray  type="Float64"  NumberOfComponents="3"  format="ascii">0 0 0  1 0 0  1 1 0  0 1 0  0.5 0 0  1 0.5 0  0.5 1 0  0 0.5 0  0.5 0.5 0  0 0.25 0  0.25 0 0  0.25 1 0  0 0.75 0  1 0.25 0  0.75 0 0  1 0.75 0  0.75 1 0  0.7083333333333333 0.2916666666666667 0  0.2916666666666666 0.7083333333333334 0  0.375 0.25 0  0.75 0.625 0  0.2569444444444444 0.4652777777777778 0  0.5366379310344828 0.7535919540229885 0  0.1875 0.1875 0  0.8125 0.8125 0  0.869047619047619 0.375 0  0.1450441919191919 0.6052714646464646 0  0.375 0.8690476190476191 0  0.5526960784313725 0.1825980392156862 0  0.8385416666666666 0.1614583333333334 0  0.1614583333333333 0.8385416666666667 0  0.6736111111111112 0.4652777777777778 0  0.1367521367521368 0.3477564102564102 0  0.6570970491253563 0.8648656830417855 0  0.5102479397556124 0.3386260301221938 0  0.3654513888888889 0.5737847222222222 0  0.6929750044954185 0.1362784921584263 0  0.388576102743835 0.411911725237599 0  0.6091269841269842 0.5942460317460317 0  0.875 0.6875 0  0.427278890279516 0.119889445139758 0  0.8544456845238095 0.5213913690476191 0  0.125 0 0  0 0.125 0  1 0.875 0  0.875 1 0  0.1280008648150532 0.4769292340226777 0  0.2695382451711197 0.3321750950221553 0  0.7031567235715964 0.7447810921428012 0  0.625 0 0  0.375 0 0  0.125 1 0  0.875 0 0  0 0.375 0  0 0.625 0  1 0.375 0  0.375 1 0  1 0.125 0  0 0.875 0  0.625 1 0  1 0.625 0  0.2979288363930608 0.1201429454643536 0  0.410919540229885 0.7484605911330049 0  0.5325041980395562 0.878905151526474 0  0.4831670727569156 0.6331060043826487 0  0.1735997378973042 0.7204747378973043 0  0.2534919507575758 0.5772372159090909 0  0.2633928571428572 0.8876488095238095 0  0.8199404761904761 0.2730654761904762 0  0.75830270586982 0.3919383189517417 0  0.5750282248382511 0.4237522353023667 0  0.6008360210023379 0.2794828358598495 0  0.08163442644334186 0.6821295860397322 0  0.08333333333333333 0.1875 0  0.2028380815996574 0.08844602719988583 0  0.2766521142611967 0.2325436572164097 0  0.90625 0.78125 0  0.890625 0.890625 0  0.7545696325008384 0.8973565441669461 0  0.5625 0.08086590340834317 0  0.09077380952380953 0.09077380952380952 0  0.4610923478694773 0.209034015149656 0  0.7542527598351648 0.5248380520595106 0  0.6459235536037465 0.3619913988405765 0  0.7560381768882634 0.20506142233852 0  0.07073252688172042 0.8125 0  0.0924753097241701 0.9078102849914793 0  0.9292674731182795 0.1875 0  0.9075246902758297 0.09218971500852073 0  0.8125 0.07073252688172045 0  0.2400955776842301 0.7869705776842302 0  0.9121050213379069 0.2781978201831695 0  0.7916878157143976 0.7239689078571988 0  0.9345238095238094 0.4375 0  0.4375 0.9345238095238095 0  0.3725616989755203 0.6651895248862173 0  0.06536271996350887 0.5625 0  0.9348362560379583 0.5625 0  0.456646798987055 0.8277247094351965 0  0.1875 0.9355758238725954 0  0.6169761231634859 0.6939779188977889 0  0.6226854751147515 0.7827911461419014 0  0.3305695598137626 0.7901697871282585 0  0.5865305325818898 0.5101085479043448 0  0.6622701297028378 0.2177663989757395 0  0.1354166666666667 0.2591702279202279 0  0 0.3125 0  0.2094429575680048 0.3936361846162499 0  0.836666296419157 0.607917407161686 0  0.6875 1 0  0.214261555450504 0.6492551722020035 0  0 0.4375 0  0.07731537126068377 0.40625 0  0.3427725432967068 0.4879566233699599 0  0.3550792513951871 0.3331953632609953 0  0.4462473953896857 0.2887834789342508 0  0.4747801464819794 0.417386052030127 0  0.8229836475148948 0.4443292349237342 0  0.7322605135514757 0.8199240278289671 0  0.6756431877205955 0.5468989748126787 0  0.1968419507215863 0.5194573482612496 0  0.3285590277777778 0.9345238095238095 0  0.8125 1 0  0.4198917601920009 0.5134893045331258 0  0.5232405503206691 0.2595791787880157 0  1 0.9375 0  0.1987510870015086 0.3025185951894431 0  0.5625 1 0  0.6005390654136388 0.9228110509230952 0  0.6411254848194414 0.07704872765442942 0  0.3357233162523242 0.1855113224530532 0  0.6730653396610877 0.6393887462324165 0  0.310966987234063 0.6240019765311626 0  0.7368737836204349 0.07457755202327881 0  0.6192316414418171 0.1485238406378594 0  0.5432429670607106 0.678552703844006 0  0.4754371679695679 0.7103946803120881 0  0.07501324890749672 0.3043839897335739 0  0.5358146975860403 0.5688321463205916 0  0.3115271739500156 0.3982137365971444 0  0.3625191397122174 0.0767854603650549 0  0.5024029442563831 0.1264128223758444 0  0.4375 0 0  0.4699946908887376 0.06379961173775725 0  0.9375 0.71875 0  0.9272105898044465 0.635671179608893 0  0.9375 1 0  0.6690971819568612 0.9331530898202766 0  0.1073454944778885 0.7499206387638554 0  0.8699082999280406 0.2232403652524313 0  0.5773118091863964 0.3548027349159383 0  0.1354166666666667 0.1428571428571428 0  0.3125 0 0  0.8241684193077341 0.9257452995055244 0  0.4352314948354036 0.3586940847489378 0  0.4351301473778832 0.5819726043539077 0  0.8073232928518163 0.3419398170341962 0  0.7775949246947366 0.1298519409204575 0  0.6875 0 0  0.7413513991851041 0.457933324954483 0  0.939453125 0.841796875 0  0.5630355154606987 0.8171875156478349 0  0.9345238095238095 0.3461466592368577 0  0.9375 0 0  1 0.0625 0  0.0625 1 0  0 0.9375 0  0.06552178593177167 0.4969053669623468 0  0.1424866619031703 0.4130277709291224 0  0.1275287182444726 0.5422946908002588 0  0.2637686595586339 0.06413888464529549 0  0.2524263535491086 0.1697437503243817 0  0.7367218397988525 0.6888573970660841 0  0.0625 0 0  0 0.0625 0  0.8463594539285995 0.7578283617857982 0  0.3128751192101563 0.2851997374369947 0  0.4015281788351144 0.1806421385113692 0  0.1910251795116588 0.4553332197174453 0  0.287797471442006 0.5222621440543902 0  0.3962628745986055 0.8097380085535307 0  0.3505895299554843 0.7304878890838692 0  0.5019151500495276 0.9356042615328103 0  0.9374389419410134 0.4999931039076005 0  0.3125 1 0  0.1875 1 0  1 0.5625 0  0.4375 1 0  1 0.3125 0  1 0.4375 0  0.8125 0 0  1 0.1875 0  0.5625 0 0  0.1875 0 0  0 0.1875 0  0 0.5625 0  0 0.6875 0  0 0.8125 0  1 0.6875 0  1 0.8125 0  0.8021696218581627 0.6612893947866073 0  0.06154922295426143 0.6239401126946708 0  0.9359375 0.9359375 0  0.4666158024849896 0.7691515918155014 0  0.2318201265217025 0.7064974250277525 0  0.1565954253579966 0.6635489312486841 0  0.1598132503680848 0.7787147500325552 0  0.3146529991605639 0.8510876378205265 0  0.1461873209418733 0.05982804528877814 0  0.06109554988524315 0.2446551776247686 0  0.8054950308560754 0.5564226538848541 0  0.470541749491976 0.8853316336952531 0  0.6948472567465137 0.4042308563372457 0  0.8802828472348889 0.4658893256343853 0  0.6788075634946739 0.7974194205806069 0  0.2155048659603867 0.2428201584940968 0  0.8131223143423806 0.2132171049028394 0  0.4330798005432235 0.6671274900735726 0  0.6015279126162613 0.2187368078743274 0  0.8061636571464289 0.8703766630361714 0  0.7008230445061776 0.3478568388444072 0  0.8638466246958771 0.3147095987735538 0  0.204801534004265 0.8789209409594009 0  0.2449006736431132 0.9424182882803838 0  0.7611268409371427 0.2643056884799992 0  0.7552800864046191 0.7678006649959446 0  0.5983639638906616 0.864113435029236 0  0.1956559506814437 0.577281203577426 0  0.3527670268164207 0.1320469097565204 0  0.7530364577483248 0.3262386077083089 0  0.4535919187979363 0.4690107087451527 0  0.8824869791666666 0.8336588541666666 0  0.8814453125 0.9451171875 0  0.5582987942628019 0.622421666543858 0  0.6817532446064828 0.6939001801354731 0  0.3830295138888889 0.9450968952922078 0  0.4140603937012541 0.05211333372716105 0  0.5535864501303013 0.3060591985391672 0  0.6560130086346878 0.2729726562211558 0  0.890203140221684 0.5948314305427268 0  0.7043857725999024 0.593980890020804 0  0.5105843922695152 0.8016828014338627 0  0.05365910753708378 0.7315110031682004 0  0.616904573672261 0.4621186633436136 0  0.5338511646455415 0.387875898899613 0  0.5231769258947843 0.4477682463140762 0  0.650302973237622 0.7370722302085519 0  0.3927483139621257 0.4662414504529014 0  0.8034595960585199 0.4972538342758211 0  0.7738337841682438 0.9496376207663251 0  0.7193737507158268 0.954685447650112 0  0.482525916480686 0.5528257169991676 0  0.2533501157346781 0.2809495420003238 0  0.3118487924482243 0.5702930126570319 0  0.6257598847669529 0.4104163315430518 0  0.1354166666666667 0.1955605158730158 0  0.04166666666666666 0.15625 0  0.3956448985530264 0.6174149462065157 0  0.8102897701818546 0.3938784238208349 0  0.2641154190013625 0.8344469561943118 0  0.642852220770013 0.5068794586563659 0  0.05271458179508221 0.355846947336007 0  0.7021551360070266 0.8921457280225779 0  0.5692125776683765 0.1328512638850284 0  0.5206162811937602 0.04865158770992991 0  0.6001838442201555 0.04540556991297563 0  0.2597716608242787 0.4118346398477178 0  0.4040584599473195 0.3179589136784675 0  0.1480337679295207 0.8941560631483065 0  0.1344356707112281 0.9466251177415842 0  0.7114696411829317 0.4983917389078826 0  0.7585704698442475 0.5751926345944629 0  0.2189131956390871 0.04022068508159698 0  0.2476935455192043 0.1123642267635843 0  0.185995005654517 0.1365524537205238 0  0.6223414373308711 0.643380839165121 0  0.5732602596637543 0.7190051747306219 0  0.268358222364537 0.6586246524467934 0  0.3265879848129173 0.2369791782191225 0  0.1267095595787346 0.7034787238999181 0  0.1115202922226038 0.6421997933884982 0  0.3128688392940203 0.07260997451790079 0  0.550724900485678 0.9253360991633187 0  0.7142608810459105 0.2384904702214873 0  0.7045869185243887 0.1871826897887429 0  0.890625 0.734375 0  0.953125 0.765625 0  0.2111812642821677 0.8286209446459138 0  0.9590293078204457 0.09375 0  0.953431269039847 0.1435719386408004 0  0.04097069217955424 0.90625 0  0.04656873096015299 0.8564280613591996 0  0.1078743037981226 0.8541621766048062 0  0.8921256962018773 0.1458378233951939 0  0.8521576979194619 0.1084496634207678 0  0.8655663982740958 0.05464346096571447 0  0.04005659640905543 0.09375 0  0.1001448316533417 0.04246776244228261 
[...]
<PointData  Vectors="f_10124-1"> 
<DataArray  type="Float64"  Name="f_10124-1"  NumberOfComponents="3" format="ascii">4.9927131539833167e-03 8.4116006402578710e-03 0.0000000000000000e+00  -1.0341975511712316e-03 2.0600038342783711e-03 0.0000000000000000e+00  1.1856497680149314e-04 4.2914442323921543e-03 0.0000000000000000e+00  -2.2502657518327354e-04 -2.1528499199035354e-03 0.0000000000000000e+00  -2.5456740071226371e-03 4.1594843631249431e-03 0.0000000000000000e+00  6.6033219466506143e-04 1.5271554654702158e-03 0.0000000000000000e+00  -7.5921813573560796e-05 2.0122278217767986e-03 0.0000000000000000e+00  -1.0716445216949130e-03 2.9554630002143600e-03 0.0000000000000000e+00  1.1731039399906268e-04 8.9174118545816590e-04 0.0000000000000000e+00  -1.3007783661900239e-03 5.2707107354577690e-03 0.0000000000000000e+00  -3.6592617776098103e-03 5.6779126268078914e-03 0.0000000000000000e+00  8.7722119196113890e-04 2.7465473291528732e-04 0.0000000000000000e+00  7.1987988517521881e-05 1.7183940780904920e-03 0.0000000000000000e+00  3.5346261255160007e-04 -9.3957189433229013e-05 0.0000000000000000e+00  -8.8858002266769404e-04 3.2497533679728442e-03 0.0000000000000000e+00  -1.0524559930609966e-04 2.4323764025013929e-03 0.0000000000000000e+00  -1.4822247256635057e-04 2.9485621028940341e-03 0.0000000000000000e+00  -5.3560005790553292e-04 2.3568070902288078e-03 0.0000000000000000e+00  -1.2353499039887696e-03 3.5692457737183094e-03 0.0000000000000000e+00  1.9122274498335409e-03 -8.9214627099503058e-04 0.0000000000000000e+00  2.0190604756352751e-04 9.4636733325820428e-04 0.0000000000000000e+00  2.8733002464473075e-03 -5.7546874284396090e-03 0.0000000000000000e+00  -4.1386361674014148e-04 1.9474523389927958e-03 0.0000000000000000e+00  2.1980200230874508e-04 -2.9640972686235697e-03 0.0000000000000000e+00  -1.9479887557492814e-04 1.7956605756738440e-03 0.0000000000000000e+00  -1.9849025130204179e-04 1.4071640344710656e-03 0.0000000000000000e+00  2.7548061086868868e-04 -2.2694816287683324e-03 0.0000000000000000e+00  -1.2114327654055399e-03 2.3837003094572388e-03 0.0000000000000000e+00  -3.1361745288846878e-04 1.4535459352107106e-03 0.0000000000000000e+00  6.0529320407376941e-04 2.9648913951204688e-03 0.0000000000000000e+00  -3.7335865026478718e-04 7.1590622610538852e-04 0.0000000000000000e+00  2.0178542043356397e-04 3.4781927282109102e-03 0.0000000000000000e+00  5.2623143441567427e-04 2.1262811564891869e-03 0.0000000000000000e+00  -5.4232660324968294e-05 2.2824036911781504e-03 0.0000000000000000e+00  1.8427073607368843e-04 -8.4246077856890949e-04 0.0000000000000000e+00  -1.1340257151425520e-03 3.9334597538611933e-03 0.0000000000000000e+00  -1.8010363463985841e-03 -3.0174961133412372e-03 0.0000000000000000e+00  -1.2264427390926364e-03 1.7070591888820119e-03 0.0000000000000000e+00  7.5370234092722967e-04 3.4126319731838653e-03 0.0000000000000000e+00  -9.7825827199158732e-05 1.7828294813361264e-03 0.0000000000000000e+00  -1.0705126534170922e-03 5.1998555749928283e-03 0.0000000000000000e+00  2.4318371237647758e-04 2.1490365878627160e-03 0.0000000000000000e+00  -1.7921550602972760e-03 4.5492281604178272e-03 0.0000000000000000e+00  1.4389037906477810e-03 -1.6784962098393735e-03 0.0000000000000000e+00  3.7270692847723584e-05 2.8006053221019669e-03 0.0000000000000000e+00  -6.4734286822960949e-04 3.6747518143723551e-03 0.0000000000000000e+00  -7.2705075766085899e-04 7.4735047301131158e-04 0.0000000000000000e+00  2.9157756296191097e-03 1.1702921566314557e-03 0.0000000000000000e+00  3.0615677425698548e-04 1.6254094428855941e-03 0.0000000000000000e+00  -9.7275438487180125e-05 6.2647437475868428e-03 0.0000000000000000e+00  -1.0732119908502982e-03 2.1890196183402787e-03 0.0000000000000000e+00  5.9651544987485313e-04 4.4732364316258429e-04 0.0000000000000000e+00  -5.6578234735477225e-04 2.6688974694477922e-03 0.0000000000000000e+00  4.8519054418513959e-04 4.3212053736565031e-03 0.0000000000000000e+00  -2.5832843827400405e-04 6.0440929607119536e-03 0.0000000000000000e+00  8.3978857616550003e-05 6.7668032675920003e-04 0.0000000000000000e+00  3.9323447839440993e-04 -4.0274391809479529e-05 0.0000000000000000e+00  8.3962831173657799e-04 -1.4093577178519372e-04 0.0000000000000000e+00  -7.1619748016447449e-04 3.0491123230860038e-03 0.0000000000000000e+00  6.4121051544945712e-05 2.5204566996947929e-03 0.0000000000000000e+00  -1.1727059207412946e-04 1.7925592559974448e-03 0.0000000000000000e+00  -3.0485357615996642e-03 4.6895877247362808e-03 0.0000000000000000e+00  1.1882417013868996e-03 -1.9587567265813577e-04 0.0000000000000000e+00  3.5125045081416790e-04 1.8579575175858387e-03 0.0000000000000000e+00  5.0908657000172297e-04 -1.2484405327319395e-03 0.0000000000000000e+00  -9.4653366474892848e-04 3.5614608805910777e-03 0.0000000000000000e+00  1.1717001870198879e-04 2.4907060616719476e-03 0.0000000000000000e+00  1.6696233846007951e-03 -8.7406396806959596e-04 0.0000000000000000e+00  1.5159317942246842e-04 -2.7092718306386174e-03 0.0000000000000000e+00  -1.9747734330347608e-03 1.5426013935576494e-03 0.0000000000000000e+00  -1.4415212046135788e-03 1.9542905883273708e-03 0.0000000000000000e+00  -9.0130749006517394e-04 2.3720390232549807e-03 0.0000000000000000e+00  -1.7337818176495602e-04 -1.7442205671696044e-03 0.0000000000000000e+00  3.6503606257618854e-04 -9.8683433038714800e-04 0.0000000000000000e+00  -6.0908680354700216e-04 -8.0440661793518588e-03 0.0000000000000000e+00  -1.7003240230576127e-03 4.3446801441746966e-03 0.0000000000000000e+00  -1.1720004210157199e-04 1.2347565256145795e-03 0.0000000000000000e+00  -6.1232495570490500e-05 3.2965079676091735e-03 0.0000000000000000e+00  -1.0440480648610872e-04 1.5576529216941328e-03 0.0000000000000000e+00  7.6290243642010978e-04 -2.5045080371542345e-03 0.0000000000000000e+00  -1.0305062499720876e-03 8.6100722644517295e-04 0.0000000000000000e+00  8.5034900733542494e-04 -1.2476368794621978e-03 0.0000000000000000e+00  -2.4479857805791518e-04 2.6799096886203416e-03 0.0000000000000000e+00  4.7726727597628487e-04 1.9071811964973108e-03 0.0000000000000000e+00  -6.9039861262155250e-05 1.3785802367285835e-03 0.0000000000000000e+00  -1.3444409119505410e-03 1.2907911174272286e-03 0.0000000000000000e+00  1.1054133223855963e-03 -7.6864032083577235e-04 0.0000000000000000e+00  -2.7252753778914292e-04 2.1305424813624699e-03 0.0000000000000000e+00  1.1531066917441744e-03 -7.7895225865375886e-04 0.0000000000000000e+00  -1.4535557912155714e-03 9.3879431457920943e-04 0.0000000000000000e+00  9.8135757192434510e-04 -1.1972997152824673e-03 0.0000000000000000e+00  1.4000066505087251e-03 1.4955896473890227e-03 0.0000000000000000e+00  1.5649184962717301e-06 1.7914927527219416e-03 0.0000000000000000e+00  -4.6684083130079301e-04 1.4064625153093313e-03 0.0000000000000000e+00  -4.9308270513098110e-04 1.9319602778138485e-03 0.0000000000000000e+00  3.2082994589328027e-04 -5.9247157422347412e-04 0.0000000000000000e+00  -8.7431849839941268e-06 -4.1244641620880197e-03 0.0000000000000000e+00  -4.0428931563431074e-04 1.4304674983959713e-03 0.0000000000000000e+00  -6.9539606593397901e-04 1.4316921185256292e-03 0.0000000000000000e+00  -2.9019509997944837e-04 1.3503123407748044e-03 0.0000000000000000e+00  1.0825517155954000e-04 2.4686908802972717e-03 0.0000000000000000e+00  -1.4626322492909834e-04 4.6611060030026446e-04 0.0000000000000000e+00  -4.2145142090173256e-04 2.6301350835525039e-03 0.0000000000000000e+00  -4.6481604801462890e-04 2.9080689555596711e-03 0.0000000000000000e+00  1.3036252655260531e-03 7.6506969420157183e-04 0.0000000000000000e+00  4.2775234022769757e-04 2.9797152115530281e-03 0.0000000000000000e+00  -1.2564593072606199e-03 2.5229667702608748e-03 0.0000000000000000e+00  -1.2446525975842008e-03 4.0127612336245495e-03 0.0000000000000000e+00  -2.0381109287293843e-04 2.1224717759163198e-03 0.0000000000000000e+00  -2.2223958997701348e-04 2.4680627952576827e-03 0.0000000000000000e+00  1.1006479882924055e-03 6.0238749820798422e-04 0.0000000000000000e+00  3.5593868357949913e-03 -2.4068040427198173e-04 0.0000000000000000e+00  -2.0490484991397954e-03 4.7580202151615595e-03 0.0000000000000000e+00  -5.2080171167308634e-04 -3.4837083684197221e-03 0.0000000000000000e+00  -1.9263753032128580e-03 -3.0189247182422265e-04 0.0000000000000000e+00  -5.8175643534688322e-04 -2.8384270637344441e-04 0.0000000000000000e+00  7.5853023662151274e-04 5.9181306727676183e-03 0.0000000000000000e+00  -2.0619612082503321e-04 -1.8434614058630925e-04 0.0000000000000000e+00  -2.0696455546956446e-05 1.9830563280478206e-03 0.0000000000000000e+00  -8.9623657757046001e-04 2.6182107174731496e-03 0.0000000000000000e+00  -1.9106522376275518e-03 8.1945237348692002e-04 0.0000000000000000e+00  3.4768896935490979e-04 7.7065351881233407e-04 0.0000000000000000e+00  -3.3939318519993022e-04 4.1640845556056875e-03 0.0000000000000000e+00  -3.7328862237167584e-04 5.8707315575490292e-04 0.0000000000000000e+00  2.4056575325349470e-03 -2.2357235800027006e-03 0.0000000000000000e+00  5.2133712793401231e-05 3.5907079515998812e-03 0.0000000000000000e+00  -1.1354590464457946e-03 8.8550455589174329e-04 0.0000000000000000e+00  2.5069517172195972e-05 2.0737185882722469e-03 0.0000000000000000e+00  1.5713975290304616e-06 2.0073527723529550e-03 0.0000000000000000e+00  -1.4835889039915887e-03 1.8920356947573348e-03 0.0000000000000000e+00  1.7155444594324065e-03 -1.2408331634895875e-03 0.0000000000000000e+00  -3.4501239339310564e-05 9.1343261999017275e-04 0.0000000000000000e+00  4.8089466221248889e-04 -5.9283100213275192e-04 0.0000000000000000e+00  -5.9926346619900448e-04 4.1899491087646710e-03 0.0000000000000000e+00  -4.3041424841286056e-03 2.3798911952323475e-03 0.0000000000000000e+00  -6.9821814234637895e-04 2.8728709658256556e-03 0.0000000000000000e+00  -1.4552200905732619e-04 4.6051299206832669e-03 0.0000000000000000e+00  -6.1308795238012193e-04 3.9339418295888627e-03 0.0000000000000000e+00  -3.4611255253961100e-04 1.9759247381079736e-04 0.0000000000000000e+00  -1.4450422114508266e-04 3.3807913309998419e-03 0.0000000000000000e+00  3.2196622240095829e-03 7.0686724651524725e-04 0.0000000000000000e+00  -7.7618252597865336e-04 -5.2893587604722610e-04 0.0000000000000000e+00  -1.7092948640919899e-03 6.0668115068646441e-03 0.0000000000000000e+00  5.8184046114892318e-03 -3.0331003422943642e-03 0.0000000000000000e+00  -7.3565836860712527e-06 2.0819247285962109e-03 0.0000000000000000e+00  7.0010348949512097e-07 1.6995773558133840e-03 0.0000000000000000e+00  -4.2290962341688676e-04 5.1358640865868110e-03 0.0000000000000000e+00  4.0572902951978383e-05 1.8544098133802280e-03 0.0000000000000000e+00  2.5127735758210751e-03 -2.0304248187577685e-03 0.0000000000000000e+00  2.2911377301971319e-03 -2.4213177223083764e-03 0.0000000000000000e+00  -9.1516945405304534e-05 4.2652053480071971e-03 0.0000000000000000e+00  -2.1588689936435346e-03 5.0355084421213015e-03 0.0000000000000000e+00  -1.3025504558903467e-03 6.8146654559852211e-03 0.0000000000000000e+00  2.5194744194440065e-04 2.8254461239354983e-03 0.0000000000000000e+00  -5.4835060344774027e-03 9.7307815363019932e-04 0.0000000000000000e+00  -3.9158875136951642e-04 1.4669427894875627e-03 0.0000000000000000e+00  -2.3217526704034653e-05 2.3225086109821364e-03 0.0000000000000000e+00  -9.4669229393979650e-04 1.7081440852542763e-03 0.0000000000000000e+00  9.9960407201004058e-04 5.7339166665638375e-03 0.0000000000000000e+00  -3.8070025708858098e-04 1.9092508099791345e-04 0.0000000000000000e+00  3.5882062153239254e-04 1.4835263835536378e-03 0.0000000000000000e+00  1.9683905084709376e-04 1.3155616948998263e-03 0.0000000000000000e+00  5.5361614333295178e-04 -7.5926846768682222e-05 0.0000000000000000e+00  -8.9080743620185369e-04 2.2425510026779388e-03 0.0000000000000000e+00  1.0957098396899309e-03 -1.3591082275461815e-03 0.0000000000000000e+00  1.0820619604971580e-03 1.2270559254631505e-04 0.0000000000000000e+00  1.2979478170695102e-03 7.9013971035390507e-04 0.0000000000000000e+00  7.2084810191849740e-03 2.3845803911691733e-03 0.0000000000000000e+00  4.4697580984080247e-03 -3.2302019196049163e-03 0.0000000000000000e+00  2.1126450447266423e-03 -4.6332430051956126e-03 0.0000000000000000e+00  -1.7041861214868040e-03 3.3686302686523595e-03 0.0000000000000000e+00  -1.1971801124092962e-04 5.9509328601867395e-03 0.0000000000000000e+00  3.0297171010288792e-04 2.4566819742222008e-03 0.0000000000000000e+00  -1.6284187784162461e-03 4.3650730427833625e-03 0.0000000000000000e+00  2.5312365029346961e-03 -7.9706272257664833e-04 0.0000000000000000e+00  -8.0489837585167668e-05 1.9573848528642692e-03 0.0000000000000000e+00  1.1139274736373574e-03 -4.6065280411045160e-04 0.0000000000000000e+00  7.1143595273227053e-04 2.1543045051150692e-03 0.0000000000000000e+00  2.4190515777494244e-03 -1.6842326800017625e-03 0.0000000000000000e+00  1.3419192099975281e-03 -2.1701392027942959e-03 0.0000000000000000e+00  8.2518506277102165e-04 1.8827353719415973e-03 0.0000000000000000e+00  -6.6888815208830394e-04 9.0522457745048895e-04 0.0000000000000000e+00  6.2574169895829226e-04 1.5440123284722008e-03 0.0000000000000000e+00  -1.0285357411839193e-04 1.9223215800260134e-03 0.0000000000000000e+00  8.5063635164479162e-04 7.6047994508810141e-04 0.0000000000000000e+00  3.8769016578835776e-04 4.8729556322259530e-04 0.0000000000000000e+00  -2.3196814762573110e-05 1.5252667869641268e-03 0.0000000000000000e+00  1.3388466690644261e-04 8.1643331662207782e-04 0.0000000000000000e+00  4.5055276032219226e-04 3.4906297344070296e-04 0.0000000000000000e+00  5.8529089425519965e-04 6.6646717151350437e-04 0.0000000000000000e+00  -5.1645778450104269e-04 3.9338958702996620e-03 0.0000000000000000e+00  8.3415860793458840e-04 -4.0457061992300495e-04 0.0000000000000000e+00  -1.3222797548207213e-03 5.4153158981638909e-03 0.0000000000000000e+00  6.4474767847920466e-04 7.6340282548568034e-03 0.0000000000000000e+00  -3.3286285134189069e-03 2.1826128497716246e-03 0.0000000000000000e+00  -3.6987792568772624e-04 4.2747827180778545e-03 0.0000000000000000e+00  3.1479409047756269e-03 -4.6312934159454416e-04 0.0000000000000000e+00  -3.3612260633749838e-03 6.1523053077777688e-03 0.0000000000000000e+00  -1.8119032578967184e-04 2.0469837478807110e-03 0.0000000000000000e+00  1.2983671185212760e-04 2.8552165604418833e-03 0.0000000000000000e+00  -7.5718661892881269e-04 2.0473804390230073e-03 0.0000000000000000e+00  1.3993904908838140e-03 -4.8099783739594523e-03 0.0000000000000000e+00  -1.0328417659546420e-04 9.7824063303267924e-04 0.0000000000000000e+00  -5.8013211983116812e-05 3.0755883938511242e-03 0.0000000000000000e+00  -1.3008458384945187e-03 2.0312412694547420e-03 0.0000000000000000e+00  1.8348876753753610e-03 -1.1981951587470283e-03 0.0000000000000000e+00  4.5746704323762228e-04 1.2536017028939839e-03 0.0000000000000000e+00  -9.4640166252546280e-04 1.6847416003204648e-03 0.0000000000000000e+00  -1.2431351489129235e-03 4.1561927546553638e-03 0.0000000000000000e+00  2.8166206467441180e-03 -3.8566160769928242e-04 0.0000000000000000e+00  -2.4760477853285972e-04 1.7953733091534863e-03 0.0000000000000000e+00  -4.8110383163210929e-04 1.4066206013166297e-03 0.0000000000000000e+00  -5.7640020072803708e-04 4.5812569633300404e-03 0.0000000000000000e+00  2.8232010997314004e-04 2.6956384523504268e-03 0.0000000000000000e+00  3.3813380797430076e-04 1.9930933988235836e-03 0.0000000000000000e+00  -1.6243236576240720e-03 3.2189026033047144e-03 0.0000000000000000e+00  -1.1204655454686407e-03 -8.9798986381544189e-04 0.0000000000000000e+00  -1.2421119042295952e-03 1.4599255942948110e-03 0.0000000000000000e+00  -2.8840936704001231e-04 4.5844220211464955e-03 0.0000000000000000e+00  -2.2888686543254830e-04 1.8395323073647602e-03 0.0000000000000000e+00  6.0360134017212110e-04 4.6015231354376651e-03 0.0000000000000000e+00  -6.8345180106707624e-04 1.8313977067763701e-03 0.0000000000000000e+00  -6.5681233156237966e-04 4.3014210007260648e-03 0.0000000000000000e+00  -1.0764798952162423e-03 2.0384416139693374e-03 0.0000000000000000e+00  5.0126389873865940e-04 6.1194165401244442e-05 0.0000000000000000e+00  -2.5629576842708577e-05 1.8812155819529564e-03 0.0000000000000000e+00  2.0731251009447650e-04 1.7673427156557377e-03 0.0000000000000000e+00  2.3108771017162685e-04 1.3935023015078578e-03 0.0000000000000000e+00  -1.2042597597876671e-03 2.8111590153908732e-03 0.0000000000000000e+00  5.1063916429798376e-04 -1.8542632085488623e-03 0.0000000000000000e+00  -6.8729039131052328e-04 2.4895881552134146e-03 0.0000000000000000e+00  -6.6952203282309231e-06 2.2552052612860945e-03 0.0000000000000000e+00  -1.2952813020481123e-03 3.8154711527731491e-03 0.0000000000000000e+00  1.4827718501279877e-04 3.0388548107775781e-04 0.0000000000000000e+00  2.1274460494113533e-04 1.8767657181548939e-03 0.0000000000000000e+00  3.3214431807453235e-04 2.2693653303289432e-03 0.0000000000000000e+00  2.8226724050639481e-03 7.0644397146536779e-03 0.0000000000000000e+00  -8.6292361117316810e-04 2.9831198449790245e-03 0.0000000000000000e+00  -8.1712126643613257e-04 -1.4249784816807330e-03 0.0000000000000000e+00  -4.9171878346837518e-05 1.8119121199150752e-03 0.0000000000000000e+00  -5.4717305561735553e-05 3.1430207770905758e-03 0.0000000000000000e+00  -5.2111393314717034e-05 7.9183640398554367e-04 0.0000000000000000e+00  -7.5462935654172219e-04 1.0700976772351452e-03 0.0000000000000000e+00  -1.1757159978005064e-03 2.0636839237574006e-03 0.0000000000000000e+00  6.4198067901160346e-04 -1.3728818218008700e-03 0.0000000000000000e+00  2.7898420250414731e-03 -1.6825148830820432e-03 0.0000000000000000e+00  3.2213634932789023e-04 9.2487117080521824e-04 0.0000000000000000e+00  -3.1462472879646339e-04 9.6809397200647851e-04 0.0000000000000000e+00  -4.4812419330603312e-04 1.8133891518278644e-03 0.0000000000000000e+00  -1.1052737304669165e-04 2.1254831725036226e-03 0.0000000000000000e+00  -1.2336897220786370e-04 2.2501830611982572e-03 0.0000000000000000e+00  -3.1031289741930623e-03 4.0396337340328744e-03 0.0000000000000000e+00  -1.8053727207279877e-03 6.6346163387280381e-03 0.0000000000000000e+00  -1.8090411298424776e-04 -2.4180105314901526e-03 0.0000000000000000e+00  -1.7827165806689679e-03 4.1197196829104669e-03 0.0000000000000000e+00  -9.9919873234314465e-06 -4.9870909566882681e-03 0.0000000000000000e+00  4.4926037956878519e-03 -4.1125990421888373e-03 0.0000000000000000e+00  6.5679467967765643e-04 2.3574539652946695e-03 0.0000000000000000e+00  -1.0506996591970171e-04 1.3741872886308267e-03 0.0000000000000000e+00  1.0410977964072556e-03 4.2222915157289257e-04 0.0000000000000000e+00  2.5488040728379195e-04 -1.0645447737124645e-03 0.0000000000000000e+00  -1.8239270364507512e-03 2.1856608024841797e-03 0.0000000000000000e+00  -8.3087936293754685e-05 2.0852162491892317e-03 0.0000000000000000e+00  -5.6425532924764894e-04 -4.2937588304011913e-03 0.0000000000000000e+00  3.5219283287850020e-03 1.0123054936412803e-04 0.0000000000000000e+00  -6.1816468200285961e-05 -1.7241628906137793e-03 0.0000000000000000e+00  1.5489334018814989e-03 -6.2724022523909751e-03 0.0000000000000000e+00  7.4412288216653129e-04 1.7878681517894790e-03 0.0000000000000000e+00  -3.6656887271877990e-04 4.0577317854853098e-03 0.0000000000000000e+00  5.2937038407703616e-04 4.1210945066703946e-04 0.0000000000000000e+00  1.9123356622123607e-03 1.0411027370976138e-03 0.0000000000000000e+00  -4.2893025325066057e-05 7.3945893083095053e-04 0.0000000000000000e+00  -3.3285447341201185e-03 6.8786671939246868e-03 0.0000000000000000e+00  1.1949175218951889e-04 3.5267884715125333e-03 0.0000000000000000e+00  1.3016205028160903e-03 7.6820275029116794e-03 0.0000000000000000e+00  1.2123910511713602e-04 7.1698831226469392e-04 0.0000000000000000e+00  8.3965766106770280e-05 1.8273638742380513e-03 0.0000000000000000e+00  1.5868386531713227e-03 1.0127129908303004e-04 0.0000000000000000e+00  4.7091081154261561e-07 2.4422540581674050e-04 0.0000000000000000e+00  -1.9256601409340041e-04 1.6840535571730707e-03 0.0000000000000000e+00  -8.7889976905095599e-04 2.4115287208903930e-03 0.000000000000000