<?xml version="1.0"?>
<VTKFile type="UnstructuredGrid"  version="0.1"  >
<UnstructuredGrid>
<Piece  NumberOfPoints="1385" NumberOfCells="2640">
<Points>
<DataArray  type="Float64"  NumberOfComponents="3"  format="ascii">0 0 0  1 0 0  1 1 0  0 1 0  0.5 0 0  1 0.5 0  0.5 1 0  0 0.5 0  0.5 0.5 0  0 0.25 0  0.25 0 0  0.25 1 0  0 0.75 0  1 0.25 0  0.75 0 0  1 0.75 0  0.75 1 0  0.7083333333333333 0.2916666666666667 0  0.2916666666666666 0.7083333333333334 0  0.375 0.25 0  0.75 0.625 0  0.2569444444444444 0.4652777777777778 0  0.5366379310344828 0.7535919540229885 0  0.1875 0.1875 0  0.8125 0.8125 0  0.869047619047619 0.375 0  0.1450441919191919 0.6052714646464646 0  0.375 0.8690476190476191 0  0.5526960784313725 0.1825980392156862 0  0.8385416666666666 0.1614583333333334 0  0.1614583333333333 0.8385416666666667 0  0.6736111111111112 0.4652777777777778 0  0.1367521367521368 0.3477564102564102 0  0.6570970491253563 0.8648656830417855 0  0.5102479397556124 0.3386260301221938 0  0.3654513888888889 0.5737847222222222 0  0.6929750044954185 0.1362784921584263 0  0.388576102743835 0.411911725237599 0  0.6091269841269842 0.5942460317460317 0  0.875 0.6875 0  0.427278890279516 0.119889445139758 0  0.8544456845238095 0.5213913690476191 0  0.125 0 0  0 0.125 0  1 0.875 0  0.875 1 0  0.1280008648150532 0.4769292340226777 0  0.2695382451711197 0.3321750950221553 0  0.7031567235715964 0.7447810921428012 0  0.625 0 0  0.375 0 0  0.125 1 0  0.875 0 0  0 0.375 0  0 0.625 0  1 0.375 0  0.375 1 0  1 0.125 0  0 0.875 0  0.625 1 0  1 0.625 0  0.2979288363930608 0.1201429454643536 0  0.410919540229885 0.7484605911330049 0  0.5325041980395562 0.878905151526474 0  0.4831670727569156 0.6331060043826487 0  0.1735997378973042 0.7204747378973043 0  0.2534919507575758 0.5772372159090909 0  0.2633928571428572 0.8876488095238095 0  0.8199404761904761 0.2730654761904762 0  0.75830270586982 0.3919383189517417 0  0.5750282248382511 0.4237522353023667 0  0.6008360210023379 0.2794828358598495 0  0.08163442644334186 0.6821295860397322 0  0.08333333333333333 0.1875 0  0.2028380815996574 0.08844602719988583 0  0.2766521142611967 0.2325436572164097 0  0.90625 0.78125 0  0.890625 0.890625 0  0.7545696325008384 0.8973565441669461 0  0.5625 0.08086590340834317 0  0.09077380952380953 0.09077380952380952 0  0.4610923478694773 0.209034015149656 0  0.7542527598351648 0.5248380520595106 0  0.6459235536037465 0.3619913988405765 0  0.7560381768882634 0.20506142233852 0  0.07073252688172042 0.8125 0  0.0924753097241701 0.9078102849914793 0  0.9292674731182795 0.1875 0  0.9075246902758297 0.09218971500852073 0  0.8125 0.07073252688172045 0  0.2400955776842301 0.7869705776842302 0  0.9121050213379069 0.2781978201831695 0  0.7916878157143976 0.7239689078571988 0  0.9345238095238094 0.4375 0  0.4375 0.9345238095238095 0  0.3725616989755203 0.6651895248862173 0  0.06536271996350887 0.5625 0  0.9348362560379583 0.5625 0  0.456646798987055 0.8277247094351965 0  0.1875 0.9355758238725954 0  0.6169761231634859 0.6939779188977889 0  0.6226854751147515 0.7827911461419014 0  0.3305695598137626 0.7901697871282585 0  0.5865305325818898 0.5101085479043448 0  0.6622701297028378 0.2177663989757395 0  0.1354166666666667 0.2591702279202279 0  0 0.3125 0  0.2094429575680048 0.3936361846162499 0  0.836666296419157 0.607917407161686 0  0.6875 1 0  0.214261555450504 0.6492551722020035 0  0 0.4375 0  0.07731537126068377 0.40625 0  0.3427725432967068 0.4879566233699599 0  0.3550792513951871 0.3331953632609953 0  0.4462473953896857 0.2887834789342508 0  0.4747801464819794 0.417386052030127 0  0.8229836475148948 0.4443292349237342 0  0.7322605135514757 0.8199240278289671 0  0.6756431877205955 0.5468989748126787 0  0.1968419507215863 0.5194573482612496 0  0.3285590277777778 0.9345238095238095 0  0.8125 1 0  0.4198917601920009 0.5134893045331258 0  0.5232405503206691 0.2595791787880157 0  1 0.9375 0  0.1987510870015086 0.3025185951894431 0  0.5625 1 0  0.6005390654136388 0.9228110509230952 0  0.6411254848194414 0.07704872765442942 0  0.3357233162523242 0.1855113224530532 0  0.6730653396610877 0.6393887462324165 0  0.310966987234063 0.6240019765311626 0  0.7368737836204349 0.07457755202327881 0  0.6192316414418171 0.1485238406378594 0  0.5432429670607106 0.678552703844006 0  0.4754371679695679 0.7103946803120881 0  0.07501324890749672 0.3043839897335739 0  0.5358146975860403 0.5688321463205916 0  0.3115271739500156 0.3982137365971444 0  0.3625191397122174 0.0767854603650549 0  0.5024029442563831 0.1264128223758444 0  0.4375 0 0  0.4699946908887376 0.06379961173775725 0  0.9375 0.71875 0  0.9272105898044465 0.635671179608893 0  0.9375 1 0  0.6690971819568612 0.9331530898202766 0  0.1073454944778885 0.7499206387638554 0  0.8699082999280406 0.2232403652524313 0  0.5773118091863964 0.3548027349159383 0  0.1354166666666667 0.1428571428571428 0  0.3125 0 0  0.8241684193077341 0.9257452995055244 0  0.4352314948354036 0.3586940847489378 0  0.4351301473778832 0.5819726043539077 0  0.8073232928518163 0.3419398170341962 0  0.7775949246947366 0.1298519409204575 0  0.6875 0 0  0.7413513991851041 0.457933324954483 0  0.939453125 0.841796875 0  0.5630355154606987 0.8171875156478349 0  0.9345238095238095 0.3461466592368577 0  0.9375 0 0  1 0.0625 0  0.0625 1 0  0 0.9375 0  0.06552178593177167 0.4969053669623468 0  0.1424866619031703 0.4130277709291224 0  0.1275287182444726 0.5422946908002588 0  0.2637686595586339 0.06413888464529549 0  0.2524263535491086 0.1697437503243817 0  0.7367218397988525 0.6888573970660841 0  0.0625 0 0  0 0.0625 0  0.8463594539285995 0.7578283617857982 0  0.3128751192101563 0.2851997374369947 0  0.4015281788351144 0.1806421385113692 0  0.1910251795116588 0.4553332197174453 0  0.287797471442006 0.5222621440543902 0  0.3962628745986055 0.8097380085535307 0  0.3505895299554843 0.7304878890838692 0  0.5019151500495276 0.9356042615328103 0  0.9374389419410134 0.4999931039076005 0  0.3125 1 0  0.1875 1 0  1 0.5625 0  0.4375 1 0  1 0.3125 0  1 0.4375 0  0.8125 0 0  1 0.1875 0  0.5625 0 0  0.1875 0 0  0 0.1875 0  0 0.5625 0  0 0.6875 0  0 0.8125 0  1 0.6875 0  1 0.8125 0  0.8021696218581627 0.6612893947866073 0  0.06154922295426143 0.6239401126946708 0  0.9359375 0.9359375 0  0.4666158024849896 0.7691515918155014 0  0.2318201265217025 0.7064974250277525 0  0.1565954253579966 0.6635489312486841 0  0.1598132503680848 0.7787147500325552 0  0.3146529991605639 0.8510876378205265 0  0.1461873209418733 0.05982804528877814 0  0.06109554988524315 0.2446551776247686 0  0.8054950308560754 0.5564226538848541 0  0.470541749491976 0.8853316336952531 0  0.6948472567465137 0.4042308563372457 0  0.8802828472348889 0.4658893256343853 0  0.6788075634946739 0.7974194205806069 0  0.2155048659603867 0.2428201584940968 0  0.8131223143423806 0.2132171049028394 0  0.4330798005432235 0.6671274900735726 0  0.6015279126162613 0.2187368078743274 0  0.8061636571464289 0.8703766630361714 0  0.7008230445061776 0.3478568388444072 0  0.8638466246958771 0.3147095987735538 0  0.204801534004265 0.8789209409594009 0  0.2449006736431132 0.9424182882803838 0  0.7611268409371427 0.2643056884799992 0  0.7552800864046191 0.7678006649959446 0  0.5983639638906616 0.864113435029236 0  0.1956559506814437 0.577281203577426 0  0.3527670268164207 0.1320469097565204 0  0.7530364577483248 0.3262386077083089 0  0.4535919187979363 0.4690107087451527 0  0.8824869791666666 0.8336588541666666 0  0.8814453125 0.9451171875 0  0.5582987942628019 0.622421666543858 0  0.6817532446064828 0.6939001801354731 0  0.3830295138888889 0.9450968952922078 0  0.4140603937012541 0.05211333372716105 0  0.5535864501303013 0.3060591985391672 0  0.6560130086346878 0.2729726562211558 0  0.890203140221684 0.5948314305427268 0  0.7043857725999024 0.593980890020804 0  0.5105843922695152 0.8016828014338627 0  0.05365910753708378 0.7315110031682004 0  0.616904573672261 0.4621186633436136 0  0.5338511646455415 0.387875898899613 0  0.5231769258947843 0.4477682463140762 0  0.650302973237622 0.7370722302085519 0  0.3927483139621257 0.4662414504529014 0  0.8034595960585199 0.4972538342758211 0  0.7738337841682438 0.9496376207663251 0  0.7193737507158268 0.954685447650112 0  0.482525916480686 0.5528257169991676 0  0.2533501157346781 0.2809495420003238 0  0.3118487924482243 0.5702930126570319 0  0.6257598847669529 0.4104163315430518 0  0.1354166666666667 0.1955605158730158 0  0.04166666666666666 0.15625 0  0.3956448985530264 0.6174149462065157 0  0.8102897701818546 0.3938784238208349 0  0.2641154190013625 0.8344469561943118 0  0.642852220770013 0.5068794586563659 0  0.05271458179508221 0.355846947336007 0  0.7021551360070266 0.8921457280225779 0  0.5692125776683765 0.1328512638850284 0  0.5206162811937602 0.04865158770992991 0  0.6001838442201555 0.04540556991297563 0  0.2597716608242787 0.4118346398477178 0  0.4040584599473195 0.3179589136784675 0  0.1480337679295207 0.8941560631483065 0  0.1344356707112281 0.9466251177415842 0  0.7114696411829317 0.4983917389078826 0  0.7585704698442475 0.5751926345944629 0  0.2189131956390871 0.04022068508159698 0  0.2476935455192043 0.1123642267635843 0  0.185995005654517 0.1365524537205238 0  0.6223414373308711 0.643380839165121 0  0.5732602596637543 0.7190051747306219 0  0.268358222364537 0.6586246524467934 0  0.3265879848129173 0.2369791782191225 0  0.1267095595787346 0.7034787238999181 0  0.1115202922226038 0.6421997933884982 0  0.3128688392940203 0.07260997451790079 0  0.550724900485678 0.9253360991633187 0  0.7142608810459105 0.2384904702214873 0  0.7045869185243887 0.1871826897887429 0  0.890625 0.734375 0  0.953125 0.765625 0  0.2111812642821677 0.8286209446459138 0  0.9590293078204457 0.09375 0  0.953431269039847 0.1435719386408004 0  0.04097069217955424 0.90625 0  0.04656873096015299 0.8564280613591996 0  0.1078743037981226 0.8541621766048062 0  0.8921256962018773 0.1458378233951939 0  0.8521576979194619 0.1084496634207678 0  0.8655663982740958 0.05464346096571447 0  0.04005659640905543 0.09375 0  0.1001448316533417 0.04246776244228261 
[...]
<PointData  Vectors="f_9174-1"> 
<DataArray  type="Float64"  Name="f_9174-1"  NumberOfComponents="3" format="ascii">4.9926073101881022e-03 8.3904824057798397e-03 0.0000000000000000e+00  -1.0327510859321947e-03 1.7732009817822086e-03 0.0000000000000000e+00  1.0002346139148153e-04 2.8978516018908916e-03 0.0000000000000000e+00  -2.1877856550843889e-04 -3.2607940281796218e-03 0.0000000000000000e+00  -2.5395770590516190e-03 4.0178459640792764e-03 0.0000000000000000e+00  6.5844876636237553e-04 6.9338181075220568e-04 0.0000000000000000e+00  -7.5482316252738820e-05 7.5839403472508589e-04 0.0000000000000000e+00  -1.0746536888940053e-03 2.3987951406492431e-03 0.0000000000000000e+00  1.1695981725679092e-04 1.9399646495564873e-04 0.0000000000000000e+00  -1.2949983989451472e-03 4.9884976281944216e-03 0.0000000000000000e+00  -3.6582109290525305e-03 5.6003553139072444e-03 0.0000000000000000e+00  8.7457640347486220e-04 -9.0131636889256590e-04 0.0000000000000000e+00  7.3603963574044333e-05 8.8263718941551412e-04 0.0000000000000000e+00  3.5133620065726055e-04 -6.4680202694206732e-04 0.0000000000000000e+00  -8.8873149155976666e-04 3.0358981986842604e-03 0.0000000000000000e+00  -9.9238309224568451e-05 1.3224173775275368e-03 0.0000000000000000e+00  -1.4328177233618607e-04 1.6275259838517190e-03 0.0000000000000000e+00  -5.3679764109557375e-04 1.8310965547951156e-03 0.0000000000000000e+00  -1.2338511202235635e-03 2.6953854035492706e-03 0.0000000000000000e+00  1.9098531340956441e-03 -1.2768767840458167e-03 0.0000000000000000e+00  2.0092425780579993e-04 4.0655065028782472e-05 0.0000000000000000e+00  2.8699267099341254e-03 -6.3413149460120957e-03 0.0000000000000000e+00  -4.1482628187073766e-04 9.5937532539386967e-04 0.0000000000000000e+00  2.1874017839142867e-04 -3.2226489272573124e-03 0.0000000000000000e+00  -1.9442808351017156e-04 6.6515745529820104e-04 0.0000000000000000e+00  -1.9749958119814673e-04 7.4690292321202172e-04 0.0000000000000000e+00  2.7413704301240563e-04 -2.9843854466675415e-03 0.0000000000000000e+00  -1.2097212109090842e-03 1.3100151724706945e-03 0.0000000000000000e+00  -3.1430867109638074e-04 1.0912460211858002e-03 0.0000000000000000e+00  6.0400701359778028e-04 2.5484693462755953e-03 0.0000000000000000e+00  -3.7435529543246868e-04 -2.6244741604066347e-04 0.0000000000000000e+00  2.0096677211601003e-04 2.7698500334625547e-03 0.0000000000000000e+00  5.2680366429855221e-04 1.6964458834944859e-03 0.0000000000000000e+00  -5.3710807390508399e-05 1.1335224577594045e-03 0.0000000000000000e+00  1.8276042821566352e-04 -1.3615391239837830e-03 0.0000000000000000e+00  -1.1346184177290287e-03 3.1843886564950161e-03 0.0000000000000000e+00  -1.8001221727570304e-03 -3.3607226543419929e-03 0.0000000000000000e+00  -1.2254488395843639e-03 1.1363842354459297e-03 0.0000000000000000e+00  7.5240574498839990e-04 2.5757159532850487e-03 0.0000000000000000e+00  -9.7449881895979307e-05 7.7195193682756918e-04 0.0000000000000000e+00  -1.0678864314885490e-03 4.9391745551357604e-03 0.0000000000000000e+00  2.4254759073619419e-04 1.3284201979852121e-03 0.0000000000000000e+00  -1.7741779939356244e-03 4.5056532311066131e-03 0.0000000000000000e+00  1.4592701922520894e-03 -1.8185086344328727e-03 0.0000000000000000e+00  4.6313226356555951e-05 1.5504419955527822e-03 0.0000000000000000e+00  -6.3549364295417948e-04 2.3143997943833199e-03 0.0000000000000000e+00  -7.2439449767911510e-04 1.7781727458676802e-04 0.0000000000000000e+00  2.9129580267545549e-03 7.2162035269260534e-04 0.0000000000000000e+00  3.0592333785068888e-04 6.0007671751120372e-04 0.0000000000000000e+00  -9.5985142164859566e-05 6.0823888433465360e-03 0.0000000000000000e+00  -1.0700636578602736e-03 2.0783523928085720e-03 0.0000000000000000e+00  5.9153001893763005e-04 -7.0012187132791764e-04 0.0000000000000000e+00  -5.6562672666307906e-04 2.4200616340906409e-03 0.0000000000000000e+00  4.8828717202167686e-04 3.9047635497618241e-03 0.0000000000000000e+00  -2.5403866158684547e-04 5.3441792803007784e-03 0.0000000000000000e+00  8.4655269052656451e-05 -1.6430416429378614e-05 0.0000000000000000e+00  3.9229092383699432e-04 -1.2515000327636863e-03 0.0000000000000000e+00  8.3592581205787684e-04 -5.5742438497104164e-04 0.0000000000000000e+00  -7.1800997661406558e-04 2.0735821368077678e-03 0.0000000000000000e+00  6.6908509861491206e-05 1.2331490721737804e-03 0.0000000000000000e+00  -1.1578462540616307e-04 8.2074407892934504e-04 0.0000000000000000e+00  -3.0448764908592801e-03 4.4680210049019373e-03 0.0000000000000000e+00  1.1870736818875307e-03 -1.1446719386847648e-03 0.0000000000000000e+00  3.5148415888973199e-04 7.3064247698608874e-04 0.0000000000000000e+00  5.0828623175256076e-04 -2.0879169284089044e-03 0.0000000000000000e+00  -9.4598683765244134e-04 2.7025640583497727e-03 0.0000000000000000e+00  1.1692703094570267e-04 1.7766251052103248e-03 0.0000000000000000e+00  1.6658606713248552e-03 -1.9326632661627913e-03 0.0000000000000000e+00  1.5118856128651105e-04 -3.2393549464611992e-03 0.0000000000000000e+00  -1.9731485150800690e-03 8.9085358421951331e-04 0.0000000000000000e+00  -1.4407518328157360e-03 1.3196776190970063e-03 0.0000000000000000e+00  -9.0061014506959635e-04 1.8887574604786778e-03 0.0000000000000000e+00  -1.7304932750163930e-04 -2.5238706402110891e-03 0.0000000000000000e+00  3.6463633556858268e-04 -1.2200693932101188e-03 0.0000000000000000e+00  -6.0771481780840908e-04 -8.1850479225354586e-03 0.0000000000000000e+00  -1.6994202054231729e-03 3.9990901576250296e-03 0.0000000000000000e+00  -1.1706197950780915e-04 1.1645904777969802e-04 0.0000000000000000e+00  -6.0424940805889902e-05 2.0520664443848145e-03 0.0000000000000000e+00  -1.0345495108550197e-04 3.5116668545552457e-04 0.0000000000000000e+00  7.6285432380639065e-04 -2.7423984364437857e-03 0.0000000000000000e+00  -1.0277471990317254e-03 7.3900541693406067e-04 0.0000000000000000e+00  8.5015446828444539e-04 -1.6092720164682006e-03 0.0000000000000000e+00  -2.4469906158323230e-04 1.8839374188141370e-03 0.0000000000000000e+00  4.7656913953665289e-04 1.3198522384914877e-03 0.0000000000000000e+00  -6.9103850599276228e-05 9.3670096596071284e-04 0.0000000000000000e+00  -1.3447095308716246e-03 3.7104652524964856e-04 0.0000000000000000e+00  1.1014331184287553e-03 -1.7964010238252968e-03 0.0000000000000000e+00  -2.7514691252158969e-04 1.6636860123469327e-03 0.0000000000000000e+00  1.1467028687021205e-03 -1.1315074201567739e-03 0.0000000000000000e+00  -1.4513044168241339e-03 6.3910341880937913e-04 0.0000000000000000e+00  9.8090834360791074e-04 -2.1408069488676965e-03 0.0000000000000000e+00  1.3969866280427660e-03 9.2867769599215956e-04 0.0000000000000000e+00  -5.8233776368602744e-07 7.6522225990426529e-04 0.0000000000000000e+00  -4.6656357604802403e-04 6.6043437154705625e-04 0.0000000000000000e+00  -4.9409543430528645e-04 7.7955046035169562e-04 0.0000000000000000e+00  3.1963469629978330e-04 -1.4345703368761041e-03 0.0000000000000000e+00  -8.9236841618776323e-06 -4.7471115633053746e-03 0.0000000000000000e+00  -4.0225398268680724e-04 5.4868321708573535e-04 0.0000000000000000e+00  -6.9516817136299196e-04 3.8073858023758892e-04 0.0000000000000000e+00  -2.9123807153000618e-04 2.6942921678698378e-04 0.0000000000000000e+00  1.0699547661167190e-04 1.5214250083977672e-03 0.0000000000000000e+00  -1.4700482981454938e-04 -5.7863099941493309e-04 0.0000000000000000e+00  -4.2168831468242495e-04 1.6555272289561021e-03 0.0000000000000000e+00  -4.6391829356659829e-04 2.1712964615923781e-03 0.0000000000000000e+00  1.3034578124743986e-03 3.3524901449608367e-04 0.0000000000000000e+00  4.2777459474899649e-04 2.6449126516531920e-03 0.0000000000000000e+00  -1.2538563849755252e-03 2.1743906040082319e-03 0.0000000000000000e+00  -1.2430580830181154e-03 3.5092977937218315e-03 0.0000000000000000e+00  -2.0355978127669795e-04 1.2074844406807614e-03 0.0000000000000000e+00  -2.2042701143043769e-04 1.1612301540883916e-03 0.0000000000000000e+00  1.1003025684567719e-03 -1.7984893267186490e-04 0.0000000000000000e+00  3.5629033215832809e-03 -7.2779247322902107e-04 0.0000000000000000e+00  -2.0479356079133788e-03 4.2795190261484418e-03 0.0000000000000000e+00  -5.2027179631418158e-04 -4.1204519705875763e-03 0.0000000000000000e+00  -1.9246861282542404e-03 -7.7332080174858872e-04 0.0000000000000000e+00  -5.8249762795122516e-04 -7.3039933382464724e-04 0.0000000000000000e+00  7.5697854259543554e-04 5.3150132806239498e-03 0.0000000000000000e+00  -2.0458015715665401e-04 -9.0628308508377696e-04 0.0000000000000000e+00  -2.0950427498862151e-05 8.6609230583535200e-04 0.0000000000000000e+00  -8.9594408649306106e-04 1.8164050544385761e-03 0.0000000000000000e+00  -1.9091953556378532e-03 1.8243100994600007e-04 0.0000000000000000e+00  3.4852299382181172e-04 -3.4450189390975968e-04 0.0000000000000000e+00  -3.3366412641983511e-04 2.8279412546757497e-03 0.0000000000000000e+00  -3.7315984607366292e-04 -1.0010176350662729e-04 0.0000000000000000e+00  2.4027607204241369e-03 -2.6704983964855340e-03 0.0000000000000000e+00  6.2834101248180794e-05 2.2704168973217229e-03 0.0000000000000000e+00  -1.1347240743996892e-03 4.9148829979852628e-04 0.0000000000000000e+00  2.6626404279563357e-05 8.0597336036859020e-04 0.0000000000000000e+00  2.7663497788722890e-06 8.2140797782139169e-04 0.0000000000000000e+00  -1.4827663618984437e-03 1.6298919514403402e-03 0.0000000000000000e+00  1.7134042086540378e-03 -1.5423626883702230e-03 0.0000000000000000e+00  -3.5254772971276692e-05 1.3246364301708644e-05 0.0000000000000000e+00  4.7840856437549847e-04 -1.3749990561643115e-03 0.0000000000000000e+00  -5.9921320130097385e-04 3.9031185263345616e-03 0.0000000000000000e+00  -4.2990565596871108e-03 2.0383180105853068e-03 0.0000000000000000e+00  -6.9665722313539704e-04 1.9637944380305368e-03 0.0000000000000000e+00  -1.4689585823199014e-04 3.6826191911385319e-03 0.0000000000000000e+00  -6.1001234776152688e-04 3.5658623576907047e-03 0.0000000000000000e+00  -3.4665983959142040e-04 -5.8458506365793622e-04 0.0000000000000000e+00  -1.4523366523770524e-04 2.8445837803292074e-03 0.0000000000000000e+00  3.2182186104002149e-03 5.2783090904496394e-04 0.0000000000000000e+00  -7.7722576833150041e-04 -8.1082656700156360e-04 0.0000000000000000e+00  -1.7081960126542571e-03 5.9418991085211162e-03 0.0000000000000000e+00  5.8091938748976455e-03 -3.2159367151994209e-03 0.0000000000000000e+00  -6.5531843927568514e-06 1.0222610456987998e-03 0.0000000000000000e+00  2.3435141441958198e-06 7.3454745718915817e-04 0.0000000000000000e+00  -4.1353910557729949e-04 3.7545489520950746e-03 0.0000000000000000e+00  4.0056440697991240e-05 6.4692154840489046e-04 0.0000000000000000e+00  2.5094683777214617e-03 -2.8930792226825853e-03 0.0000000000000000e+00  2.2876902593572958e-03 -2.9117196871417290e-03 0.0000000000000000e+00  -9.2206957243523005e-05 3.7040815391404134e-03 0.0000000000000000e+00  -2.1587001877993325e-03 4.8286493138848217e-03 0.0000000000000000e+00  -1.2987806731964869e-03 6.7214527704199624e-03 0.0000000000000000e+00  2.5469409922694575e-04 1.5772233992466106e-03 0.0000000000000000e+00  -5.4768924987685322e-03 4.5021941167001673e-04 0.0000000000000000e+00  -3.9112132025102641e-04 6.9299472436357644e-04 0.0000000000000000e+00  -2.4341128298989145e-05 1.7132083162760790e-03 0.0000000000000000e+00  -9.4679090808379510e-04 1.3431882643597736e-03 0.0000000000000000e+00  9.9883329800816499e-04 5.5361264444650522e-03 0.0000000000000000e+00  -3.8171843695749739e-04 -5.2403706771048412e-04 0.0000000000000000e+00  3.6241728826627909e-04 2.9604487005214022e-04 0.0000000000000000e+00  1.9567394166477615e-04 2.4714945315246911e-04 0.0000000000000000e+00  5.5388193263528908e-04 -7.1612454124111839e-04 0.0000000000000000e+00  -8.8799354138483812e-04 1.9713970245642002e-03 0.0000000000000000e+00  1.0936355269074386e-03 -1.7053421787736247e-03 0.0000000000000000e+00  1.0777928226391813e-03 -1.0166457418247835e-03 0.0000000000000000e+00  1.3008564942213129e-03 -2.5401855548221454e-04 0.0000000000000000e+00  7.2061483933807758e-03 1.8109701239827029e-03 0.0000000000000000e+00  4.4656039454052717e-03 -3.7267118120595326e-03 0.0000000000000000e+00  2.1123496530282798e-03 -5.2663599291567229e-03 0.0000000000000000e+00  -1.6956526614759148e-03 3.2321149142024779e-03 0.0000000000000000e+00  -1.2019464464715435e-04 5.6854704895086166e-03 0.0000000000000000e+00  3.0144864181040593e-04 1.4844319105211696e-03 0.0000000000000000e+00  -1.6092047088497818e-03 4.3245916226294619e-03 0.0000000000000000e+00  2.5463847799084968e-03 -8.7173286913286752e-04 0.0000000000000000e+00  -8.1273409426733381e-05 8.7800918907308934e-04 0.0000000000000000e+00  1.1126943751207197e-03 -8.6458055887776578e-04 0.0000000000000000e+00  7.0966958394811817e-04 1.8354532058941181e-03 0.0000000000000000e+00  2.4161326279719913e-03 -2.2406935658160015e-03 0.0000000000000000e+00  1.3405517693291010e-03 -2.8312292639585796e-03 0.0000000000000000e+00  8.2408287193411374e-04 8.7001249267507855e-04 0.0000000000000000e+00  -6.6819970791607273e-04 -6.8414149056298702e-06 0.0000000000000000e+00  6.2648570753508399e-04 3.7629404397502685e-04 0.0000000000000000e+00  -1.0433018423610544e-04 1.1107788300692373e-03 0.0000000000000000e+00  8.4870560744461788e-04 -4.3613818657959322e-04 0.0000000000000000e+00  3.8528755874098859e-04 -6.7289489450465898e-04 0.0000000000000000e+00  -2.5443171191348539e-05 6.2140574148349050e-04 0.0000000000000000e+00  1.3336100696417091e-04 -4.1195740687248006e-04 0.0000000000000000e+00  4.4866421093282376e-04 -2.7426047786208814e-04 0.0000000000000000e+00  5.8373700673489462e-04 -9.4495616816631946e-05 0.0000000000000000e+00  -5.2311265693757384e-04 3.7001511275097801e-03 0.0000000000000000e+00  8.2977199187522495e-04 -8.8838578615392798e-04 0.0000000000000000e+00  -1.3215499439173037e-03 5.2521475657532051e-03 0.0000000000000000e+00  6.5490631580947863e-04 7.5729717426374953e-03 0.0000000000000000e+00  -3.3191137290004965e-03 1.9714606845989430e-03 0.0000000000000000e+00  -3.6804545234465219e-04 3.6507972309689218e-03 0.0000000000000000e+00  3.1431428738156525e-03 -1.2248955518364608e-03 0.0000000000000000e+00  -3.3622698947687415e-03 5.2488694854022667e-03 0.0000000000000000e+00  -1.7743392037016263e-04 1.0055978904193045e-03 0.0000000000000000e+00  1.3898665788688759e-04 1.6754329385051993e-03 0.0000000000000000e+00  -7.5665429154877855e-04 1.0856406137768064e-03 0.0000000000000000e+00  1.3916549968070078e-03 -5.5091345083394423e-03 0.0000000000000000e+00  -1.0253291985667153e-04 -2.9358938224965068e-04 0.0000000000000000e+00  -5.6648815212796320e-05 2.0848623672792060e-03 0.0000000000000000e+00  -1.3006500325478494e-03 1.1774120481412205e-03 0.0000000000000000e+00  1.8332550332895931e-03 -1.9772177642711280e-03 0.0000000000000000e+00  4.5630715136912056e-04 3.4213077530562098e-04 0.0000000000000000e+00  -9.4481610982557617e-04 6.4802367986774257e-04 0.0000000000000000e+00  -1.2395634340251016e-03 4.0628624757659973e-03 0.0000000000000000e+00  2.8149074825435652e-03 -6.7581718517897046e-04 0.0000000000000000e+00  -2.4758276075715344e-04 9.4946212787039893e-04 0.0000000000000000e+00  -4.8111817438110374e-04 2.9319333104767449e-04 0.0000000000000000e+00  -5.7654005916954183e-04 3.9328508120508570e-03 0.0000000000000000e+00  2.8088821434246118e-04 1.9299638277064074e-03 0.0000000000000000e+00  3.3737010436118639e-04 9.1527841393730918e-04 0.0000000000000000e+00  -1.6248784008657151e-03 2.8780709091821739e-03 0.0000000000000000e+00  -1.1198599890052355e-03 -1.3654196821650726e-03 0.0000000000000000e+00  -1.2432925710026447e-03 5.9582854495596443e-04 0.0000000000000000e+00  -2.8982154633686139e-04 4.1686154362616766e-03 0.0000000000000000e+00  -2.2749787930948775e-04 6.4232017484061512e-04 0.0000000000000000e+00  6.0283001692351516e-04 4.0117011050252224e-03 0.0000000000000000e+00  -6.8423558501708723e-04 1.2372842868598941e-03 0.0000000000000000e+00  -6.5848834320942685e-04 3.2634107449404566e-03 0.0000000000000000e+00  -1.0804665311837701e-03 9.3687240451117829e-04 0.0000000000000000e+00  5.0017262124275462e-04 -4.4870352163948953e-04 0.0000000000000000e+00  -2.6098419305407134e-05 8.1440203423710370e-04 0.0000000000000000e+00  2.0596125282315841e-04 6.3826692336430382e-04 0.0000000000000000e+00  2.2985401848357777e-04 6.9494451873426493e-04 0.0000000000000000e+00  -1.2022225553070280e-03 2.5615469222445763e-03 0.0000000000000000e+00  5.0949598838530611e-04 -2.4250067355734628e-03 0.0000000000000000e+00  -6.8695946384183246e-04 1.8355797305750906e-03 0.0000000000000000e+00  -7.2150519997575149e-06 1.0801831274410379e-03 0.0000000000000000e+00  -1.2863313561095099e-03 2.5398936270740326e-03 0.0000000000000000e+00  1.4713459805980545e-04 -5.4490806972437166e-04 0.0000000000000000e+00  2.1140052482345183e-04 9.1511865214075213e-04 0.0000000000000000e+00  3.2571047757834438e-04 1.1299594524691843e-03 0.0000000000000000e+00  2.8216862599224598e-03 6.9058438009473137e-03 0.0000000000000000e+00  -8.6201228617783468e-04 2.4820912964056926e-03 0.0000000000000000e+00  -8.1753302559826294e-04 -1.9112056805224683e-03 0.0000000000000000e+00  -4.8267383209592914e-05 8.9824594567178848e-04 0.0000000000000000e+00  -5.5924125853778518e-05 2.2803398924135946e-03 0.0000000000000000e+00  -5.1616981339400896e-05 -2.4591248226898190e-04 0.0000000000000000e+00  -7.5519422720033119e-04 2.4601535419989341e-04 0.0000000000000000e+00  -1.1754022678584178e-03 1.3761359971819526e-03 0.0000000000000000e+00  6.4081447729375863e-04 -1.9535982569731892e-03 0.0000000000000000e+00  2.7863394859754414e-03 -2.3258227222177010e-03 0.0000000000000000e+00  3.2237159224517278e-04 -7.6598971346953461e-05 0.0000000000000000e+00  -3.1518985362362351e-04 3.3805786752760586e-04 0.0000000000000000e+00  -4.4795142447701114e-04 1.0349168800809386e-03 0.0000000000000000e+00  -1.0753091424793679e-04 8.7754191816254244e-04 0.0000000000000000e+00  -1.2069020427512374e-04 1.0121719834467536e-03 0.0000000000000000e+00  -3.1015600778367741e-03 3.2851106606021823e-03 0.0000000000000000e+00  -1.8041870852509984e-03 6.2431806527253721e-03 0.0000000000000000e+00  -1.8011087564881307e-04 -3.1375429253544013e-03 0.0000000000000000e+00  -1.7820350012631404e-03 3.4841447084639531e-03 0.0000000000000000e+00  -1.1380734457835630e-05 -5.2400846806387770e-03 0.0000000000000000e+00  4.4919473292672086e-03 -4.2957670102378590e-03 0.0000000000000000e+00  6.5557179541727846e-04 1.5590094469488493e-03 0.0000000000000000e+00  -1.0525187955801849e-04 7.0760326925504904e-04 0.0000000000000000e+00  1.0392130124538517e-03 -5.7968862614431302e-04 0.0000000000000000e+00  2.5451788795261552e-04 -1.8072245733919243e-03 0.0000000000000000e+00  -1.8219279747830066e-03 1.7795716039725545e-03 0.0000000000000000e+00  -8.1407518133561475e-05 8.9646043298351804e-04 0.0000000000000000e+00  -5.6432632141328052e-04 -4.5975030221361863e-03 0.0000000000000000e+00  3.5169991500281061e-03 -7.6695918134062318e-05 0.0000000000000000e+00  -6.3332234206169361e-05 -1.9179993946525950e-03 0.0000000000000000e+00  1.5479681387228442e-03 -6.7967719901287143e-03 0.0000000000000000e+00  7.4322077346088090e-04 1.3170652024675766e-03 0.0000000000000000e+00  -3.6834105063089304e-04 3.0196493854057903e-03 0.0000000000000000e+00  5.2710989539735110e-04 -6.6305553429238449e-04 0.0000000000000000e+00  1.9100581309028108e-03 2.8702456026690653e-04 0.0000000000000000e+00  -4.2230163000822780e-05 -1.1730309481096707e-04 0.0000000000000000e+00  -3.3183249475259892e-03 6.7847283425607439e-03 0.0000000000000000e+00  1.2080554346297604e-04 3.3287997845776081e-03 0.0000000000000000e+00  1.2994022047904041e-03 7.4678479074548557e-03 0.0000000000000000e+00  1.2020663893114633e-04 -1.7107463996101496e-04 0.0000000000000000e+00  8.3590723822432795e-05 8.6609039814206003e-04 0.0000000000000000e+00  1.5850154915846015e-03 -7.0814468913821173e-04 0.0000000000000000e+00  -1.7935633834329921e-07 -1.1562820868653929e-04 0.0000000000000000e+00  -1.9188674940069834e-04 8.6263868539259206e-04 0.0000000000000000e+00  -8.8070114772949206e-04 1.66239872