<?xml version="1.0"?>
<VTKFile type="UnstructuredGrid"  version="0.1"  >
<UnstructuredGrid>
<Piece  NumberOfPoints="1385" NumberOfCells="2640">
<Points>
<DataArray  type="Float64"  NumberOfComponents="3"  format="ascii">0 0 0  1 0 0  1 1 0  0 1 0  0.5 0 0  1 0.5 0  0.5 1 0  0 0.5 0  0.5 0.5 0  0 0.25 0  0.25 0 0  0.25 1 0  0 0.75 0  1 0.25 0  0.75 0 0  1 0.75 0  0.75 1 0  0.7083333333333333 0.2916666666666667 0  0.2916666666666666 0.7083333333333334 0  0.375 0.25 0  0.75 0.625 0  0.2569444444444444 0.4652777777777778 0  0.5366379310344828 0.7535919540229885 0  0.1875 0.1875 0  0.8125 0.8125 0  0.869047619047619 0.375 0  0.1450441919191919 0.6052714646464646 0  0.375 0.8690476190476191 0  0.5526960784313725 0.1825980392156862 0  0.8385416666666666 0.1614583333333334 0  0.1614583333333333 0.8385416666666667 0  0.6736111111111112 0.4652777777777778 0  0.1367521367521368 0.3477564102564102 0  0.6570970491253563 0.8648656830417855 0  0.5102479397556124 0.3386260301221938 0  0.3654513888888889 0.5737847222222222 0  0.6929750044954185 0.1362784921584263 0  0.388576102743835 0.411911725237599 0  0.6091269841269842 0.5942460317460317 0  0.875 0.6875 0  0.427278890279516 0.119889445139758 0  0.8544456845238095 0.5213913690476191 0  0.125 0 0  0 0.125 0  1 0.875 0  0.875 1 0  0.1280008648150532 0.4769292340226777 0  0.2695382451711197 0.3321750950221553 0  0.7031567235715964 0.7447810921428012 0  0.625 0 0  0.375 0 0  0.125 1 0  0.875 0 0  0 0.375 0  0 0.625 0  1 0.375 0  0.375 1 0  1 0.125 0  0 0.875 0  0.625 1 0  1 0.625 0  0.2979288363930608 0.1201429454643536 0  0.410919540229885 0.7484605911330049 0  0.5325041980395562 0.878905151526474 0  0.4831670727569156 0.6331060043826487 0  0.1735997378973042 0.7204747378973043 0  0.2534919507575758 0.5772372159090909 0  0.2633928571428572 0.8876488095238095 0  0.8199404761904761 0.2730654761904762 0  0.75830270586982 0.3919383189517417 0  0.5750282248382511 0.4237522353023667 0  0.6008360210023379 0.2794828358598495 0  0.08163442644334186 0.6821295860397322 0  0.08333333333333333 0.1875 0  0.2028380815996574 0.08844602719988583 0  0.2766521142611967 0.2325436572164097 0  0.90625 0.78125 0  0.890625 0.890625 0  0.7545696325008384 0.8973565441669461 0  0.5625 0.08086590340834317 0  0.09077380952380953 0.09077380952380952 0  0.4610923478694773 0.209034015149656 0  0.7542527598351648 0.5248380520595106 0  0.6459235536037465 0.3619913988405765 0  0.7560381768882634 0.20506142233852 0  0.07073252688172042 0.8125 0  0.0924753097241701 0.9078102849914793 0  0.9292674731182795 0.1875 0  0.9075246902758297 0.09218971500852073 0  0.8125 0.07073252688172045 0  0.2400955776842301 0.7869705776842302 0  0.9121050213379069 0.2781978201831695 0  0.7916878157143976 0.7239689078571988 0  0.9345238095238094 0.4375 0  0.4375 0.9345238095238095 0  0.3725616989755203 0.6651895248862173 0  0.06536271996350887 0.5625 0  0.9348362560379583 0.5625 0  0.456646798987055 0.8277247094351965 0  0.1875 0.9355758238725954 0  0.6169761231634859 0.6939779188977889 0  0.6226854751147515 0.7827911461419014 0  0.3305695598137626 0.7901697871282585 0  0.5865305325818898 0.5101085479043448 0  0.6622701297028378 0.2177663989757395 0  0.1354166666666667 0.2591702279202279 0  0 0.3125 0  0.2094429575680048 0.3936361846162499 0  0.836666296419157 0.607917407161686 0  0.6875 1 0  0.214261555450504 0.6492551722020035 0  0 0.4375 0  0.07731537126068377 0.40625 0  0.3427725432967068 0.4879566233699599 0  0.3550792513951871 0.3331953632609953 0  0.4462473953896857 0.2887834789342508 0  0.4747801464819794 0.417386052030127 0  0.8229836475148948 0.4443292349237342 0  0.7322605135514757 0.8199240278289671 0  0.6756431877205955 0.5468989748126787 0  0.1968419507215863 0.5194573482612496 0  0.3285590277777778 0.9345238095238095 0  0.8125 1 0  0.4198917601920009 0.5134893045331258 0  0.5232405503206691 0.2595791787880157 0  1 0.9375 0  0.1987510870015086 0.3025185951894431 0  0.5625 1 0  0.6005390654136388 0.9228110509230952 0  0.6411254848194414 0.07704872765442942 0  0.3357233162523242 0.1855113224530532 0  0.6730653396610877 0.6393887462324165 0  0.310966987234063 0.6240019765311626 0  0.7368737836204349 0.07457755202327881 0  0.6192316414418171 0.1485238406378594 0  0.5432429670607106 0.678552703844006 0  0.4754371679695679 0.7103946803120881 0  0.07501324890749672 0.3043839897335739 0  0.5358146975860403 0.5688321463205916 0  0.3115271739500156 0.3982137365971444 0  0.3625191397122174 0.0767854603650549 0  0.5024029442563831 0.1264128223758444 0  0.4375 0 0  0.4699946908887376 0.06379961173775725 0  0.9375 0.71875 0  0.9272105898044465 0.635671179608893 0  0.9375 1 0  0.6690971819568612 0.9331530898202766 0  0.1073454944778885 0.7499206387638554 0  0.8699082999280406 0.2232403652524313 0  0.5773118091863964 0.3548027349159383 0  0.1354166666666667 0.1428571428571428 0  0.3125 0 0  0.8241684193077341 0.9257452995055244 0  0.4352314948354036 0.3586940847489378 0  0.4351301473778832 0.5819726043539077 0  0.8073232928518163 0.3419398170341962 0  0.7775949246947366 0.1298519409204575 0  0.6875 0 0  0.7413513991851041 0.457933324954483 0  0.939453125 0.841796875 0  0.5630355154606987 0.8171875156478349 0  0.9345238095238095 0.3461466592368577 0  0.9375 0 0  1 0.0625 0  0.0625 1 0  0 0.9375 0  0.06552178593177167 0.4969053669623468 0  0.1424866619031703 0.4130277709291224 0  0.1275287182444726 0.5422946908002588 0  0.2637686595586339 0.06413888464529549 0  0.2524263535491086 0.1697437503243817 0  0.7367218397988525 0.6888573970660841 0  0.0625 0 0  0 0.0625 0  0.8463594539285995 0.7578283617857982 0  0.3128751192101563 0.2851997374369947 0  0.4015281788351144 0.1806421385113692 0  0.1910251795116588 0.4553332197174453 0  0.287797471442006 0.5222621440543902 0  0.3962628745986055 0.8097380085535307 0  0.3505895299554843 0.7304878890838692 0  0.5019151500495276 0.9356042615328103 0  0.9374389419410134 0.4999931039076005 0  0.3125 1 0  0.1875 1 0  1 0.5625 0  0.4375 1 0  1 0.3125 0  1 0.4375 0  0.8125 0 0  1 0.1875 0  0.5625 0 0  0.1875 0 0  0 0.1875 0  0 0.5625 0  0 0.6875 0  0 0.8125 0  1 0.6875 0  1 0.8125 0  0.8021696218581627 0.6612893947866073 0  0.06154922295426143 0.6239401126946708 0  0.9359375 0.9359375 0  0.4666158024849896 0.7691515918155014 0  0.2318201265217025 0.7064974250277525 0  0.1565954253579966 0.6635489312486841 0  0.1598132503680848 0.7787147500325552 0  0.3146529991605639 0.8510876378205265 0  0.1461873209418733 0.05982804528877814 0  0.06109554988524315 0.2446551776247686 0  0.8054950308560754 0.5564226538848541 0  0.470541749491976 0.8853316336952531 0  0.6948472567465137 0.4042308563372457 0  0.8802828472348889 0.4658893256343853 0  0.6788075634946739 0.7974194205806069 0  0.2155048659603867 0.2428201584940968 0  0.8131223143423806 0.2132171049028394 0  0.4330798005432235 0.6671274900735726 0  0.6015279126162613 0.2187368078743274 0  0.8061636571464289 0.8703766630361714 0  0.7008230445061776 0.3478568388444072 0  0.8638466246958771 0.3147095987735538 0  0.204801534004265 0.8789209409594009 0  0.2449006736431132 0.9424182882803838 0  0.7611268409371427 0.2643056884799992 0  0.7552800864046191 0.7678006649959446 0  0.5983639638906616 0.864113435029236 0  0.1956559506814437 0.577281203577426 0  0.3527670268164207 0.1320469097565204 0  0.7530364577483248 0.3262386077083089 0  0.4535919187979363 0.4690107087451527 0  0.8824869791666666 0.8336588541666666 0  0.8814453125 0.9451171875 0  0.5582987942628019 0.622421666543858 0  0.6817532446064828 0.6939001801354731 0  0.3830295138888889 0.9450968952922078 0  0.4140603937012541 0.05211333372716105 0  0.5535864501303013 0.3060591985391672 0  0.6560130086346878 0.2729726562211558 0  0.890203140221684 0.5948314305427268 0  0.7043857725999024 0.593980890020804 0  0.5105843922695152 0.8016828014338627 0  0.05365910753708378 0.7315110031682004 0  0.616904573672261 0.4621186633436136 0  0.5338511646455415 0.387875898899613 0  0.5231769258947843 0.4477682463140762 0  0.650302973237622 0.7370722302085519 0  0.3927483139621257 0.4662414504529014 0  0.8034595960585199 0.4972538342758211 0  0.7738337841682438 0.9496376207663251 0  0.7193737507158268 0.954685447650112 0  0.482525916480686 0.5528257169991676 0  0.2533501157346781 0.2809495420003238 0  0.3118487924482243 0.5702930126570319 0  0.6257598847669529 0.4104163315430518 0  0.1354166666666667 0.1955605158730158 0  0.04166666666666666 0.15625 0  0.3956448985530264 0.6174149462065157 0  0.8102897701818546 0.3938784238208349 0  0.2641154190013625 0.8344469561943118 0  0.642852220770013 0.5068794586563659 0  0.05271458179508221 0.355846947336007 0  0.7021551360070266 0.8921457280225779 0  0.5692125776683765 0.1328512638850284 0  0.5206162811937602 0.04865158770992991 0  0.6001838442201555 0.04540556991297563 0  0.2597716608242787 0.4118346398477178 0  0.4040584599473195 0.3179589136784675 0  0.1480337679295207 0.8941560631483065 0  0.1344356707112281 0.9466251177415842 0  0.7114696411829317 0.4983917389078826 0  0.7585704698442475 0.5751926345944629 0  0.2189131956390871 0.04022068508159698 0  0.2476935455192043 0.1123642267635843 0  0.185995005654517 0.1365524537205238 0  0.6223414373308711 0.643380839165121 0  0.5732602596637543 0.7190051747306219 0  0.268358222364537 0.6586246524467934 0  0.3265879848129173 0.2369791782191225 0  0.1267095595787346 0.7034787238999181 0  0.1115202922226038 0.6421997933884982 0  0.3128688392940203 0.07260997451790079 0  0.550724900485678 0.9253360991633187 0  0.7142608810459105 0.2384904702214873 0  0.7045869185243887 0.1871826897887429 0  0.890625 0.734375 0  0.953125 0.765625 0  0.2111812642821677 0.8286209446459138 0  0.9590293078204457 0.09375 0  0.953431269039847 0.1435719386408004 0  0.04097069217955424 0.90625 0  0.04656873096015299 0.8564280613591996 0  0.1078743037981226 0.8541621766048062 0  0.8921256962018773 0.1458378233951939 0  0.8521576979194619 0.1084496634207678 0  0.8655663982740958 0.05464346096571447 0  0.04005659640905543 0.09375 0  0.1001448316533417 0.04246776244228261 
[...]
<PointData  Vectors="f_10409-1"> 
<DataArray  type="Float64"  Name="f_10409-1"  NumberOfComponents="3" format="ascii">4.9932860705065021e-03 8.4178253949178054e-03 0.0000000000000000e+00  -1.0341791529732041e-03 2.1453338962166327e-03 0.0000000000000000e+00  1.2233380908273773e-04 4.7076570990298387e-03 0.0000000000000000e+00  -2.2616454969150721e-04 -1.8212128697018184e-03 0.0000000000000000e+00  -2.5467726997252535e-03 4.2032192783462343e-03 0.0000000000000000e+00  6.6088095268863238e-04 1.7774897439069735e-03 0.0000000000000000e+00  -7.5981792074316431e-05 2.3885979737528489e-03 0.0000000000000000e+00  -1.0715345789604975e-03 3.1228005594137478e-03 0.0000000000000000e+00  1.1747001690389652e-04 1.1008083534829057e-03 0.0000000000000000e+00  -1.3021610281327188e-03 5.3555464947017415e-03 0.0000000000000000e+00  -3.6606470015262535e-03 5.7017677160643761e-03 0.0000000000000000e+00  8.7788263204470192e-04 6.2911988424806716e-04 0.0000000000000000e+00  7.2090684756372396e-05 1.9690357266312912e-03 0.0000000000000000e+00  3.5398173724800121e-04 7.2361889354305756e-05 0.0000000000000000e+00  -8.8837488071055607e-04 3.3143536531193320e-03 0.0000000000000000e+00  -1.0651930971554684e-04 2.7658253610866263e-03 0.0000000000000000e+00  -1.4922318718617588e-04 3.3458042636115631e-03 0.0000000000000000e+00  -5.3556133269108274e-04 2.5143008268307043e-03 0.0000000000000000e+00  -1.2356923301120723e-03 3.8311267205189859e-03 0.0000000000000000e+00  1.9128243437138623e-03 -7.7709668990494558e-04 0.0000000000000000e+00  2.0199346536924848e-04 1.2180043295718743e-03 0.0000000000000000e+00  2.8743146965187309e-03 -5.5792688227757764e-03 0.0000000000000000e+00  -4.1377692130286817e-04 2.2439096493826762e-03 0.0000000000000000e+00  2.2005815106268132e-04 -2.8863590364815350e-03 0.0000000000000000e+00  -1.9482720814455125e-04 2.1348112313586774e-03 0.0000000000000000e+00  -1.9860086950776210e-04 1.6049278528399533e-03 0.0000000000000000e+00  2.7582853295289410e-04 -2.0559272290036662e-03 0.0000000000000000e+00  -1.2117845911684289e-03 2.7052782948878734e-03 0.0000000000000000e+00  -3.1355518355961594e-04 1.5616969529869506e-03 0.0000000000000000e+00  6.0568544392332064e-04 3.0898293761800364e-03 0.0000000000000000e+00  -3.7304963069288710e-04 1.0088729211970484e-03 0.0000000000000000e+00  2.0200178253150603e-04 3.6904855688784060e-03 0.0000000000000000e+00  5.2618924132977988e-04 2.2550142716282686e-03 0.0000000000000000e+00  -5.4318452562149896e-05 2.6262887641378130e-03 0.0000000000000000e+00  1.8454768023370966e-04 -6.8674934561712450e-04 0.0000000000000000e+00  -1.1341333363967807e-03 4.1571927582704409e-03 0.0000000000000000e+00  -1.8013698521599864e-03 -2.9149734424053415e-03 0.0000000000000000e+00  -1.2267186841883699e-03 1.8779728669705974e-03 0.0000000000000000e+00  7.5406426564268540e-04 3.6631776716802844e-03 0.0000000000000000e+00  -9.7967232766683551e-05 2.0857173857050477e-03 0.0000000000000000e+00  -1.0711030926120646e-03 5.2773391180234389e-03 0.0000000000000000e+00  2.4335181247847723e-04 2.3948636778579730e-03 0.0000000000000000e+00  -1.7958336082149326e-03 4.5637685243811220e-03 0.0000000000000000e+00  1.4358291446739228e-03 -1.6363970982364126e-03 0.0000000000000000e+00  3.5677633329426139e-05 3.1760468762967679e-03 0.0000000000000000e+00  -6.4925326324911687e-04 4.0837428741117253e-03 0.0000000000000000e+00  -7.2764641881995504e-04 9.1765469130184395e-04 0.0000000000000000e+00  2.9166802251432674e-03 1.3042383472181382e-03 0.0000000000000000e+00  3.0631323659502841e-04 1.9326898476380104e-03 0.0000000000000000e+00  -9.7497316688039716e-05 6.3199118063645490e-03 0.0000000000000000e+00  -1.0738920857138433e-03 2.2224514044997430e-03 0.0000000000000000e+00  5.9751336974978215e-04 7.9244234561268992e-04 0.0000000000000000e+00  -5.6576947691531891e-04 2.7446120018747426e-03 0.0000000000000000e+00  4.8456234662800062e-04 4.4470596581489240e-03 0.0000000000000000e+00  -2.5866428773075136e-04 6.2541318160573255e-03 0.0000000000000000e+00  8.3841335498021806e-05 8.8493767224242202e-04 0.0000000000000000e+00  3.9364269782427822e-04 3.2425215842439554e-04 0.0000000000000000e+00  8.4048143071367937e-04 -1.5833500408791480e-05 0.0000000000000000e+00  -7.1632195072274317e-04 3.3417848262912520e-03 0.0000000000000000e+00  6.3584434127435165e-05 2.9071475377795745e-03 0.0000000000000000e+00  -1.1762290060114873e-04 2.0843691649845208e-03 0.0000000000000000e+00  -3.0497519520073075e-03 4.7556961566679237e-03 0.0000000000000000e+00  1.1885714528655697e-03 8.8351083453820970e-05 0.0000000000000000e+00  3.5130178028342732e-04 2.1954107357440781e-03 0.0000000000000000e+00  5.0929714670533844e-04 -9.9702070502465058e-04 0.0000000000000000e+00  -9.4676898269388239e-04 3.8180886705631292e-03 0.0000000000000000e+00  1.1723322890652151e-04 2.7050837486012318e-03 0.0000000000000000e+00  1.6704788673409438e-03 -5.5727055848809725e-04 0.0000000000000000e+00  1.5175965283301487e-04 -2.5501884599916291e-03 0.0000000000000000e+00  -1.9752583968937988e-03 1.7376120415414336e-03 0.0000000000000000e+00  -1.4418404870911489e-03 2.1443713797891120e-03 0.0000000000000000e+00  -9.0149591833986378e-04 2.5164431950298266e-03 0.0000000000000000e+00  -1.7327998757136077e-04 -1.5107316995695776e-03 0.0000000000000000e+00  3.6500152048571843e-04 -9.1726377097427387e-04 0.0000000000000000e+00  -6.0959233695086689e-04 -8.0025044991181918e-03 0.0000000000000000e+00  -1.7006902265418935e-03 4.4476308200974563e-03 0.0000000000000000e+00  -1.1739255739372630e-04 1.5699408973059298e-03 0.0000000000000000e+00  -6.1716833282896098e-05 3.6679607760510690e-03 0.0000000000000000e+00  -1.0467658114995006e-04 1.9187175676362374e-03 0.0000000000000000e+00  7.6312273490790241e-04 -2.4339462591682335e-03 0.0000000000000000e+00  -1.0315911772727094e-03 8.9534703960166538e-04 0.0000000000000000e+00  8.5050396636535261e-04 -1.1391731029985353e-03 0.0000000000000000e+00  -2.4480936072480161e-04 2.9187633900138571e-03 0.0000000000000000e+00  4.7751183990509108e-04 2.0829035197437364e-03 0.0000000000000000e+00  -6.8922871032670811e-05 1.5109390902382576e-03 0.0000000000000000e+00  -1.3444942716681323e-03 1.5666113928489236e-03 0.0000000000000000e+00  1.1063939378121814e-03 -4.6101637665525415e-04 0.0000000000000000e+00  -2.7192557605646941e-04 2.2705490350419053e-03 0.0000000000000000e+00  1.1545477725196629e-03 -6.7457793958894375e-04 0.0000000000000000e+00  -1.4538573529591504e-03 1.0280400970862210e-03 0.0000000000000000e+00  9.8164697318033002e-04 -9.1480956266195472e-04 0.0000000000000000e+00  1.4007845791675407e-03 1.6648946495031272e-03 0.0000000000000000e+00  1.9390895085943396e-06 2.0992055831251578e-03 0.0000000000000000e+00  -4.6691310819900141e-04 1.6297338464255225e-03 0.0000000000000000e+00  -4.9286820298564482e-04 2.2770425675029873e-03 0.0000000000000000e+00  3.2110368804620518e-04 -3.3997442330430247e-04 0.0000000000000000e+00  -8.8170935779014435e-06 -3.9355837644263307e-03 0.0000000000000000e+00  -4.0466771114887920e-04 1.6951286829396488e-03 0.0000000000000000e+00  -6.9551929536279793e-04 1.7463865000927491e-03 0.0000000000000000e+00  -2.8975719913831117e-04 1.6747615916209507e-03 0.0000000000000000e+00  1.0847124318623417e-04 2.7522673768702812e-03 0.0000000000000000e+00  -1.4619550912044633e-04 7.7935314942236575e-04 0.0000000000000000e+00  -4.2148654216437172e-04 2.9221837547716211e-03 0.0000000000000000e+00  -4.6503169103340744e-04 3.1285040034689129e-03 0.0000000000000000e+00  1.3040181409249075e-03 8.9375019781176427e-04 0.0000000000000000e+00  4.2787551693780764e-04 3.0795313699474194e-03 0.0000000000000000e+00  -1.2573036792377988e-03 2.6278449973016838e-03 0.0000000000000000e+00  -1.2451460793452525e-03 4.1632772446395482e-03 0.0000000000000000e+00  -2.0391662322425422e-04 2.3963347425845307e-03 0.0000000000000000e+00  -2.2271038735514307e-04 2.8603771232518730e-03 0.0000000000000000e+00  1.1009846507422749e-03 8.3693321866623724e-04 0.0000000000000000e+00  3.5595698822507432e-03 -9.4786891945570974e-05 0.0000000000000000e+00  -2.0497113481187644e-03 4.9010733579404019e-03 0.0000000000000000e+00  -5.2092321995086022e-04 -3.2931885748029906e-03 0.0000000000000000e+00  -1.9269283392651935e-03 -1.6081792826730512e-04 0.0000000000000000e+00  -5.8184103954950954e-04 -1.5018295062446544e-04 0.0000000000000000e+00  7.5885681931043907e-04 6.0991718210138346e-03 0.0000000000000000e+00  -2.0640529966445297e-04 3.2253105113658979e-05 0.0000000000000000e+00  -2.0719608257807826e-05 2.3182973898577364e-03 0.0000000000000000e+00  -8.9642087868604936e-04 2.8583776334057736e-03 0.0000000000000000e+00  -1.9111491611854140e-03 1.0098552015642044e-03 0.0000000000000000e+00  3.4764194529378172e-04 1.1056156300905263e-03 0.0000000000000000e+00  -3.4066193878198175e-04 4.5664285930381516e-03 0.0000000000000000e+00  -3.7330393450690530e-04 7.9360344490895379e-04 0.0000000000000000e+00  2.4064036363316676e-03 -2.1055873375247537e-03 0.0000000000000000e+00  5.1318343659082703e-05 3.9872289432350463e-03 0.0000000000000000e+00  -1.1356590024279574e-03 1.0038351674246909e-03 0.0000000000000000e+00  2.4736405399282525e-05 2.4548097090274089e-03 0.0000000000000000e+00  1.3418922286478836e-06 2.3622481052475949e-03 0.0000000000000000e+00  -1.4838814596332972e-03 1.9694052759825259e-03 0.0000000000000000e+00  1.7161005533375150e-03 -1.1507341386978853e-03 0.0000000000000000e+00  -3.4301031602030057e-05 1.1831563392176452e-03 0.0000000000000000e+00  4.8129810248192411e-04 -3.5877920037928352e-04 0.0000000000000000e+00  -5.9936554485204643e-04 4.2754544374271099e-03 0.0000000000000000e+00  -4.3054354528974910e-03 2.4822453024970830e-03 0.0000000000000000e+00  -6.9842420246118411e-04 3.1452136092432808e-03 0.0000000000000000e+00  -1.4536301227384966e-04 4.8824786089524648e-03 0.0000000000000000e+00  -6.1385027594544703e-04 4.0435030565263968e-03 0.0000000000000000e+00  -3.4602229133988578e-04 4.3223042989499376e-04 0.0000000000000000e+00  -1.4436653832367832e-04 3.5412223477996898e-03 0.0000000000000000e+00  3.2202497734354664e-03 7.5976041396826034e-04 0.0000000000000000e+00  -7.7630341277607005e-04 -4.4500542084331972e-04 0.0000000000000000e+00  -1.7100063199854299e-03 6.1058215407845673e-03 0.0000000000000000e+00  5.8206296111922443e-03 -2.9778770113604268e-03 0.0000000000000000e+00  -7.6926055022655352e-06 2.3996871434788557e-03 0.0000000000000000e+00  4.0306729663460339e-07 1.9887206735924434e-03 0.0000000000000000e+00  -4.2320921428770284e-04 5.5507753300312289e-03 0.0000000000000000e+00  4.0675146094199454e-05 2.2172039623917432e-03 0.0000000000000000e+00  2.5137438715213535e-03 -1.7723178854327762e-03 0.0000000000000000e+00  2.2921138869719691e-03 -2.2745959884473022e-03 0.0000000000000000e+00  -9.1443210316213038e-05 4.4334348201765447e-03 0.0000000000000000e+00  -2.1592640934153958e-03 5.0967011164063190e-03 0.0000000000000000e+00  -1.3033486579391541e-03 6.8435425233880787e-03 0.0000000000000000e+00  2.5138063727209793e-04 3.1995809671233910e-03 0.0000000000000000e+00  -5.4851820125636063e-03 1.1297661557651451e-03 0.0000000000000000e+00  -3.9165677013565533e-04 1.6984920750738241e-03 0.0000000000000000e+00  -2.3004039792516462e-05 2.5049810469674190e-03 0.0000000000000000e+00  -9.4684202248547468e-04 1.8171257916935126e-03 0.0000000000000000e+00  9.9974517840119553e-04 5.7938729001237640e-03 0.0000000000000000e+00  -3.8062866420491789e-04 4.0537155159953630e-04 0.0000000000000000e+00  3.5834584436304534e-04 1.8411718896805813e-03 0.0000000000000000e+00  1.9700826882860871e-04 1.6357928955520510e-03 0.0000000000000000e+00  5.5375539430967808e-04 1.1638476945209533e-04 0.0000000000000000e+00  -8.9178812048737476e-04 2.3239657320332490e-03 0.0000000000000000e+00  1.0959423907943703e-03 -1.2552293302457774e-03 0.0000000000000000e+00  1.0826217741195879e-03 4.6372839965098727e-04 0.0000000000000000e+00  1.2975078866765400e-03 1.1032017103807172e-03 0.0000000000000000e+00  7.2098248259692714e-03 2.5557931969276797e-03 0.0000000000000000e+00  4.4710752565481253e-03 -3.0813373096400419e-03 0.0000000000000000e+00  2.1128659118189040e-03 -4.4434112472140812e-03 0.0000000000000000e+00  -1.7056870980667338e-03 3.4095380383543515e-03 0.0000000000000000e+00  -1.1977487089884090e-04 6.0306880145351328e-03 0.0000000000000000e+00  3.0330708048700904e-04 2.7481609045021159e-03 0.0000000000000000e+00  -1.6303454540482789e-03 4.3768404495223689e-03 0.0000000000000000e+00  2.5308945727015473e-03 -7.7551969806725473e-04 0.0000000000000000e+00  -8.0316397678422942e-05 2.2809788481224151e-03 0.0000000000000000e+00  1.1143008761644482e-03 -3.3924065770498356e-04 0.0000000000000000e+00  7.1173557835641616e-04 2.2496246565571576e-03 0.0000000000000000e+00  2.4197258530490634e-03 -1.5168782672133493e-03 0.0000000000000000e+00  1.3423137778054257e-03 -1.9722560138235104e-03 0.0000000000000000e+00  8.2553573229120474e-04 2.1864048749624045e-03 0.0000000000000000e+00  -6.6901159074816106e-04 1.1786815085138588e-03 0.0000000000000000e+00  6.2574507090213879e-04 1.8943478972007462e-03 0.0000000000000000e+00  -1.0271403178089232e-04 2.1662226919412424e-03 0.0000000000000000e+00  8.5127200641440832e-04 1.1205574861642485e-03 0.0000000000000000e+00  3.8826669955783653e-04 8.3684321787578933e-04 0.0000000000000000e+00  -2.2890469510882110e-05 1.7964737143106398e-03 0.0000000000000000e+00  1.3401535869667306e-04 1.1862709328526379e-03 0.0000000000000000e+00  4.5096289284254204e-04 5.3642237202856545e-04 0.0000000000000000e+00  5.8557150472938330e-04 8.9533511312282722e-04 0.0000000000000000e+00  -5.1559047793598475e-04 4.0042175031482887e-03 0.0000000000000000e+00  8.3515706172271407e-04 -2.5905437175543513e-04 0.0000000000000000e+00  -1.3227950666641777e-03 5.4649372974419734e-03 0.0000000000000000e+00  6.4287466666834107e-04 7.6531813759811371e-03 0.0000000000000000e+00  -3.3311848427564320e-03 2.2460590121878596e-03 0.0000000000000000e+00  -3.7009497667444348e-04 4.4629277460962640e-03 0.0000000000000000e+00  3.1488977451189148e-03 -2.3429390244361495e-04 0.0000000000000000e+00  -3.3615942884712554e-03 6.4243372216673724e-03 0.0000000000000000e+00  -1.8194434859491733e-04 2.3596730069147176e-03 0.0000000000000000e+00  1.2827957659417716e-04 3.2096294932286180e-03 0.0000000000000000e+00  -7.5733956889612953e-04 2.3356126951618720e-03 0.0000000000000000e+00  1.4003084464174181e-03 -4.5994679683883386e-03 0.0000000000000000e+00  -1.0377092992439844e-04 1.3621083263610663e-03 0.0000000000000000e+00  -5.8230268734006446e-05 3.3722412786118807e-03 0.0000000000000000e+00  -1.3011119184228388e-03 2.2872027621204660e-03 0.0000000000000000e+00  1.8354894763524371e-03 -9.6423037050202788e-04 0.0000000000000000e+00  4.5783496440965897e-04 1.5269669241408563e-03 0.0000000000000000e+00  -9.4668028656550622e-04 1.9953625457518301e-03 0.0000000000000000e+00  -1.2443871815215309e-03 4.1849667578249964e-03 0.0000000000000000e+00  2.8170386793860474e-03 -2.9898018895899007e-04 0.0000000000000000e+00  -2.4768403135692787e-04 2.0490273721875708e-03 0.0000000000000000e+00  -4.8115510047546154e-04 1.7404873620303605e-03 0.0000000000000000e+00  -5.7643861875725049e-04 4.7756998332221610e-03 0.0000000000000000e+00  2.8244319687113729e-04 2.9249018377942838e-03 0.0000000000000000e+00  3.3824941155269741e-04 2.3163725460851356e-03 0.0000000000000000e+00  -1.6245532814476251e-03 3.3199854921778646e-03 0.0000000000000000e+00  -1.1206601269537055e-03 -7.5866648420529269e-04 0.0000000000000000e+00  -1.2421486528654188e-03 1.7188167198379633e-03 0.0000000000000000e+00  -2.8830575805302772e-04 4.7092188086479258e-03 0.0000000000000000e+00  -2.2928371539048973e-04 2.1977093074776063e-03 0.0000000000000000e+00  6.0387229563008832e-04 4.7779299996391382e-03 0.0000000000000000e+00  -6.8333205613255697e-04 2.0092094835485268e-03 0.0000000000000000e+00  -6.5640959731089665e-04 4.6121049092682238e-03 0.0000000000000000e+00  -1.0759876087721274e-03 2.3694990174738095e-03 0.0000000000000000e+00  5.0153075581094923e-04 2.1353944841199699e-04 0.0000000000000000e+00  -2.5484169943776596e-05 2.2006523695960391e-03 0.0000000000000000e+00  2.0749322990211861e-04 2.1057216426778021e-03 0.0000000000000000e+00  2.3127852487025670e-04 1.6029224486539867e-03 0.0000000000000000e+00  -1.2049042409556575e-03 2.8856809284186864e-03 0.0000000000000000e+00  5.1088443458531920e-04 -1.6828931053399832e-03 0.0000000000000000e+00  -6.8739083078347139e-04 2.6849730975917621e-03 0.0000000000000000e+00  -6.7506307287993771e-06 2.6072588876780416e-03 0.0000000000000000e+00  -1.2973364923402125e-03 4.1996475328627218e-03 0.0000000000000000e+00  1.4849357600634552e-04 5.5828832094309035e-04 0.0000000000000000e+00  2.1302330982130431e-04 2.1652214774929702e-03 0.0000000000000000e+00  3.3286928609120321e-04 2.6124425636839988e-03 0.0000000000000000e+00  2.8232881199274245e-03 7.1137415333543622e-03 0.0000000000000000e+00  -8.6315313821866283e-04 3.1330218384612841e-03 0.0000000000000000e+00  -8.1717284157880330e-04 -1.2793962874083915e-03 0.0000000000000000e+00  -4.9303554738786318e-05 2.0852823363909844e-03 0.0000000000000000e+00  -5.4603450622861581e-05 3.4014543336187693e-03 0.0000000000000000e+00  -5.2152854260542700e-05 1.1025489581903093e-03 0.0000000000000000e+00  -7.5457307010214254e-04 1.3177777801359418e-03 0.0000000000000000e+00  -1.1759471914102222e-03 2.2698938581773146e-03 0.0000000000000000e+00  6.4233785317063710e-04 -1.1990246850188909e-03 0.0000000000000000e+00  2.7907668260639712e-03 -1.4896879429466669e-03 0.0000000000000000e+00  3.2229422132499396e-04 1.2251168202776191e-03 0.0000000000000000e+00  -3.1463693302967265e-04 1.1568923500273555e-03 0.0000000000000000e+00  -4.4824571752493259e-04 2.0466211375305414e-03 0.0000000000000000e+00  -1.1136851936465451e-04 2.5016543048746571e-03 0.0000000000000000e+00  -1.2410451982316703e-04 2.6238194863941336e-03 0.0000000000000000e+00  -3.1038305110497105e-03 4.2657578789007146e-03 0.0000000000000000e+00  -1.8057440585707320e-03 6.7519992623559684e-03 0.0000000000000000e+00  -1.8093845506429973e-04 -2.2023604125916640e-03 0.0000000000000000e+00  -1.7830402870614758e-03 4.3101492666063976e-03 0.0000000000000000e+00  -9.8005687333728637e-06 -4.9114649514052245e-03 0.0000000000000000e+00  4.4926090665434694e-03 -4.0585196504465213e-03 0.0000000000000000e+00  6.5717432500188267e-04 2.5971690143396448e-03 0.0000000000000000e+00  -1.0504925361001030e-04 1.5737878508941580e-03 0.0000000000000000e+00  1.0415973268606178e-03 7.2258779100064022e-04 0.0000000000000000e+00  2.5497623724336441e-04 -8.4196088654373154e-04 0.0000000000000000e+00  -1.8245817307870676e-03 2.3080715794602312e-03 0.0000000000000000e+00  -8.3518382276566178e-05 2.4406904925458176e-03 0.0000000000000000e+00  -5.6433700038627937e-04 -4.2028788972743158e-03 0.0000000000000000e+00  3.5229399253799577e-03 1.5657978450027497e-04 0.0000000000000000e+00  -6.1850462645303157e-05 -1.6635536332231284e-03 0.0000000000000000e+00  1.5493324180789823e-03 -6.1148597652694947e-03 0.0000000000000000e+00  7.4436543964197851e-04 1.9285581416856037e-03 0.0000000000000000e+00  -3.6611604368960227e-04 4.3683702946792548e-03 0.0000000000000000e+00  5.3007817568220188e-04 7.3562543102013338e-04 0.0000000000000000e+00  1.9130812803275581e-03 1.2670428065683892e-03 0.0000000000000000e+00  -4.2992536918339376e-05 9.9559511632162784e-04 0.0000000000000000e+00  -3.3305892228946863e-03 6.9086755349337219e-03 0.0000000000000000e+00  1.1926339451800069e-04 3.5855721526485969e-03 0.0000000000000000e+00  1.3021508062224113e-03 7.7457552648307641e-03 0.0000000000000000e+00  1.2148381800455201e-04 9.8356750828928704e-04 0.0000000000000000e+00  8.4122140507595961e-05 2.1153675508324660e-03 0.0000000000000000e+00  1.5874317418807515e-03 3.4351181152142288e-04 0.0000000000000000e+00  5.7297415516008310e-07 3.5148182091491575e-04 0.0000000000000000e+00  -1.9260854925966979e-04 1.9301321855651713e-03 0.0000000000000000e+00  -8.7868815323669284e-04 2.6359015521212384e-03 0.0000000000000000e+00