<?xml version="1.0"?>
<VTKFile type="UnstructuredGrid"  version="0.1"  >
<UnstructuredGrid>
<Piece  NumberOfPoints="1385" NumberOfCells="2640">
<Points>
<DataArray  type="Float64"  NumberOfComponents="3"  format="ascii">0 0 0  1 0 0  1 1 0  0 1 0  0.5 0 0  1 0.5 0  0.5 1 0  0 0.5 0  0.5 0.5 0  0 0.25 0  0.25 0 0  0.25 1 0  0 0.75 0  1 0.25 0  0.75 0 0  1 0.75 0  0.75 1 0  0.7083333333333333 0.2916666666666667 0  0.2916666666666666 0.7083333333333334 0  0.375 0.25 0  0.75 0.625 0  0.2569444444444444 0.4652777777777778 0  0.5366379310344828 0.7535919540229885 0  0.1875 0.1875 0  0.8125 0.8125 0  0.869047619047619 0.375 0  0.1450441919191919 0.6052714646464646 0  0.375 0.8690476190476191 0  0.5526960784313725 0.1825980392156862 0  0.8385416666666666 0.1614583333333334 0  0.1614583333333333 0.8385416666666667 0  0.6736111111111112 0.4652777777777778 0  0.1367521367521368 0.3477564102564102 0  0.6570970491253563 0.8648656830417855 0  0.5102479397556124 0.3386260301221938 0  0.3654513888888889 0.5737847222222222 0  0.6929750044954185 0.1362784921584263 0  0.388576102743835 0.411911725237599 0  0.6091269841269842 0.5942460317460317 0  0.875 0.6875 0  0.427278890279516 0.119889445139758 0  0.8544456845238095 0.5213913690476191 0  0.125 0 0  0 0.125 0  1 0.875 0  0.875 1 0  0.1280008648150532 0.4769292340226777 0  0.2695382451711197 0.3321750950221553 0  0.7031567235715964 0.7447810921428012 0  0.625 0 0  0.375 0 0  0.125 1 0  0.875 0 0  0 0.375 0  0 0.625 0  1 0.375 0  0.375 1 0  1 0.125 0  0 0.875 0  0.625 1 0  1 0.625 0  0.2979288363930608 0.1201429454643536 0  0.410919540229885 0.7484605911330049 0  0.5325041980395562 0.878905151526474 0  0.4831670727569156 0.6331060043826487 0  0.1735997378973042 0.7204747378973043 0  0.2534919507575758 0.5772372159090909 0  0.2633928571428572 0.8876488095238095 0  0.8199404761904761 0.2730654761904762 0  0.75830270586982 0.3919383189517417 0  0.5750282248382511 0.4237522353023667 0  0.6008360210023379 0.2794828358598495 0  0.08163442644334186 0.6821295860397322 0  0.08333333333333333 0.1875 0  0.2028380815996574 0.08844602719988583 0  0.2766521142611967 0.2325436572164097 0  0.90625 0.78125 0  0.890625 0.890625 0  0.7545696325008384 0.8973565441669461 0  0.5625 0.08086590340834317 0  0.09077380952380953 0.09077380952380952 0  0.4610923478694773 0.209034015149656 0  0.7542527598351648 0.5248380520595106 0  0.6459235536037465 0.3619913988405765 0  0.7560381768882634 0.20506142233852 0  0.07073252688172042 0.8125 0  0.0924753097241701 0.9078102849914793 0  0.9292674731182795 0.1875 0  0.9075246902758297 0.09218971500852073 0  0.8125 0.07073252688172045 0  0.2400955776842301 0.7869705776842302 0  0.9121050213379069 0.2781978201831695 0  0.7916878157143976 0.7239689078571988 0  0.9345238095238094 0.4375 0  0.4375 0.9345238095238095 0  0.3725616989755203 0.6651895248862173 0  0.06536271996350887 0.5625 0  0.9348362560379583 0.5625 0  0.456646798987055 0.8277247094351965 0  0.1875 0.9355758238725954 0  0.6169761231634859 0.6939779188977889 0  0.6226854751147515 0.7827911461419014 0  0.3305695598137626 0.7901697871282585 0  0.5865305325818898 0.5101085479043448 0  0.6622701297028378 0.2177663989757395 0  0.1354166666666667 0.2591702279202279 0  0 0.3125 0  0.2094429575680048 0.3936361846162499 0  0.836666296419157 0.607917407161686 0  0.6875 1 0  0.214261555450504 0.6492551722020035 0  0 0.4375 0  0.07731537126068377 0.40625 0  0.3427725432967068 0.4879566233699599 0  0.3550792513951871 0.3331953632609953 0  0.4462473953896857 0.2887834789342508 0  0.4747801464819794 0.417386052030127 0  0.8229836475148948 0.4443292349237342 0  0.7322605135514757 0.8199240278289671 0  0.6756431877205955 0.5468989748126787 0  0.1968419507215863 0.5194573482612496 0  0.3285590277777778 0.9345238095238095 0  0.8125 1 0  0.4198917601920009 0.5134893045331258 0  0.5232405503206691 0.2595791787880157 0  1 0.9375 0  0.1987510870015086 0.3025185951894431 0  0.5625 1 0  0.6005390654136388 0.9228110509230952 0  0.6411254848194414 0.07704872765442942 0  0.3357233162523242 0.1855113224530532 0  0.6730653396610877 0.6393887462324165 0  0.310966987234063 0.6240019765311626 0  0.7368737836204349 0.07457755202327881 0  0.6192316414418171 0.1485238406378594 0  0.5432429670607106 0.678552703844006 0  0.4754371679695679 0.7103946803120881 0  0.07501324890749672 0.3043839897335739 0  0.5358146975860403 0.5688321463205916 0  0.3115271739500156 0.3982137365971444 0  0.3625191397122174 0.0767854603650549 0  0.5024029442563831 0.1264128223758444 0  0.4375 0 0  0.4699946908887376 0.06379961173775725 0  0.9375 0.71875 0  0.9272105898044465 0.635671179608893 0  0.9375 1 0  0.6690971819568612 0.9331530898202766 0  0.1073454944778885 0.7499206387638554 0  0.8699082999280406 0.2232403652524313 0  0.5773118091863964 0.3548027349159383 0  0.1354166666666667 0.1428571428571428 0  0.3125 0 0  0.8241684193077341 0.9257452995055244 0  0.4352314948354036 0.3586940847489378 0  0.4351301473778832 0.5819726043539077 0  0.8073232928518163 0.3419398170341962 0  0.7775949246947366 0.1298519409204575 0  0.6875 0 0  0.7413513991851041 0.457933324954483 0  0.939453125 0.841796875 0  0.5630355154606987 0.8171875156478349 0  0.9345238095238095 0.3461466592368577 0  0.9375 0 0  1 0.0625 0  0.0625 1 0  0 0.9375 0  0.06552178593177167 0.4969053669623468 0  0.1424866619031703 0.4130277709291224 0  0.1275287182444726 0.5422946908002588 0  0.2637686595586339 0.06413888464529549 0  0.2524263535491086 0.1697437503243817 0  0.7367218397988525 0.6888573970660841 0  0.0625 0 0  0 0.0625 0  0.8463594539285995 0.7578283617857982 0  0.3128751192101563 0.2851997374369947 0  0.4015281788351144 0.1806421385113692 0  0.1910251795116588 0.4553332197174453 0  0.287797471442006 0.5222621440543902 0  0.3962628745986055 0.8097380085535307 0  0.3505895299554843 0.7304878890838692 0  0.5019151500495276 0.9356042615328103 0  0.9374389419410134 0.4999931039076005 0  0.3125 1 0  0.1875 1 0  1 0.5625 0  0.4375 1 0  1 0.3125 0  1 0.4375 0  0.8125 0 0  1 0.1875 0  0.5625 0 0  0.1875 0 0  0 0.1875 0  0 0.5625 0  0 0.6875 0  0 0.8125 0  1 0.6875 0  1 0.8125 0  0.8021696218581627 0.6612893947866073 0  0.06154922295426143 0.6239401126946708 0  0.9359375 0.9359375 0  0.4666158024849896 0.7691515918155014 0  0.2318201265217025 0.7064974250277525 0  0.1565954253579966 0.6635489312486841 0  0.1598132503680848 0.7787147500325552 0  0.3146529991605639 0.8510876378205265 0  0.1461873209418733 0.05982804528877814 0  0.06109554988524315 0.2446551776247686 0  0.8054950308560754 0.5564226538848541 0  0.470541749491976 0.8853316336952531 0  0.6948472567465137 0.4042308563372457 0  0.8802828472348889 0.4658893256343853 0  0.6788075634946739 0.7974194205806069 0  0.2155048659603867 0.2428201584940968 0  0.8131223143423806 0.2132171049028394 0  0.4330798005432235 0.6671274900735726 0  0.6015279126162613 0.2187368078743274 0  0.8061636571464289 0.8703766630361714 0  0.7008230445061776 0.3478568388444072 0  0.8638466246958771 0.3147095987735538 0  0.204801534004265 0.8789209409594009 0  0.2449006736431132 0.9424182882803838 0  0.7611268409371427 0.2643056884799992 0  0.7552800864046191 0.7678006649959446 0  0.5983639638906616 0.864113435029236 0  0.1956559506814437 0.577281203577426 0  0.3527670268164207 0.1320469097565204 0  0.7530364577483248 0.3262386077083089 0  0.4535919187979363 0.4690107087451527 0  0.8824869791666666 0.8336588541666666 0  0.8814453125 0.9451171875 0  0.5582987942628019 0.622421666543858 0  0.6817532446064828 0.6939001801354731 0  0.3830295138888889 0.9450968952922078 0  0.4140603937012541 0.05211333372716105 0  0.5535864501303013 0.3060591985391672 0  0.6560130086346878 0.2729726562211558 0  0.890203140221684 0.5948314305427268 0  0.7043857725999024 0.593980890020804 0  0.5105843922695152 0.8016828014338627 0  0.05365910753708378 0.7315110031682004 0  0.616904573672261 0.4621186633436136 0  0.5338511646455415 0.387875898899613 0  0.5231769258947843 0.4477682463140762 0  0.650302973237622 0.7370722302085519 0  0.3927483139621257 0.4662414504529014 0  0.8034595960585199 0.4972538342758211 0  0.7738337841682438 0.9496376207663251 0  0.7193737507158268 0.954685447650112 0  0.482525916480686 0.5528257169991676 0  0.2533501157346781 0.2809495420003238 0  0.3118487924482243 0.5702930126570319 0  0.6257598847669529 0.4104163315430518 0  0.1354166666666667 0.1955605158730158 0  0.04166666666666666 0.15625 0  0.3956448985530264 0.6174149462065157 0  0.8102897701818546 0.3938784238208349 0  0.2641154190013625 0.8344469561943118 0  0.642852220770013 0.5068794586563659 0  0.05271458179508221 0.355846947336007 0  0.7021551360070266 0.8921457280225779 0  0.5692125776683765 0.1328512638850284 0  0.5206162811937602 0.04865158770992991 0  0.6001838442201555 0.04540556991297563 0  0.2597716608242787 0.4118346398477178 0  0.4040584599473195 0.3179589136784675 0  0.1480337679295207 0.8941560631483065 0  0.1344356707112281 0.9466251177415842 0  0.7114696411829317 0.4983917389078826 0  0.7585704698442475 0.5751926345944629 0  0.2189131956390871 0.04022068508159698 0  0.2476935455192043 0.1123642267635843 0  0.185995005654517 0.1365524537205238 0  0.6223414373308711 0.643380839165121 0  0.5732602596637543 0.7190051747306219 0  0.268358222364537 0.6586246524467934 0  0.3265879848129173 0.2369791782191225 0  0.1267095595787346 0.7034787238999181 0  0.1115202922226038 0.6421997933884982 0  0.3128688392940203 0.07260997451790079 0  0.550724900485678 0.9253360991633187 0  0.7142608810459105 0.2384904702214873 0  0.7045869185243887 0.1871826897887429 0  0.890625 0.734375 0  0.953125 0.765625 0  0.2111812642821677 0.8286209446459138 0  0.9590293078204457 0.09375 0  0.953431269039847 0.1435719386408004 0  0.04097069217955424 0.90625 0  0.04656873096015299 0.8564280613591996 0  0.1078743037981226 0.8541621766048062 0  0.8921256962018773 0.1458378233951939 0  0.8521576979194619 0.1084496634207678 0  0.8655663982740958 0.05464346096571447 0  0.04005659640905543 0.09375 0  0.1001448316533417 0.04246776244228261 
[...]
<PointData  Vectors="f_9459-1"> 
<DataArray  type="Float64"  Name="f_9459-1"  NumberOfComponents="3" format="ascii">4.9918698124894190e-03 8.3964423032476618e-03 0.0000000000000000e+00  -1.0335842997554689e-03 1.8598438019901285e-03 0.0000000000000000e+00  1.0732636938158016e-04 3.3177096442227553e-03 0.0000000000000000e+00  -2.2130807285178139e-04 -2.9277608499467724e-03 0.0000000000000000e+00  -2.5422535285398035e-03 4.0589411014026640e-03 0.0000000000000000e+00  6.5894901143517424e-04 9.4324006985926998e-04 0.0000000000000000e+00  -7.5708995045193229e-05 1.1341849327163589e-03 0.0000000000000000e+00  -1.0729890832027228e-03 2.5654713958095862e-03 0.0000000000000000e+00  1.1696710195998423e-04 4.0347948262972090e-04 0.0000000000000000e+00  -1.2969600817724933e-03 5.0730793088956151e-03 0.0000000000000000e+00  -3.6572967780828759e-03 5.6229098983692190e-03 0.0000000000000000e+00  8.7546773121457738e-04 -5.5042511897042780e-04 0.0000000000000000e+00  7.2320472353013974e-05 1.1333772118589584e-03 0.0000000000000000e+00  3.5205017723640689e-04 -4.8139754842719965e-04 0.0000000000000000e+00  -8.8898854538873445e-04 3.0995299266488238e-03 0.0000000000000000e+00  -1.0140275507415956e-04 1.6549340557881834e-03 0.0000000000000000e+00  -1.4509046762485188e-04 2.0226949584887686e-03 0.0000000000000000e+00  -5.3606442223819921e-04 1.9889997245704882e-03 0.0000000000000000e+00  -1.2344249512530919e-03 2.9578156200144490e-03 0.0000000000000000e+00  1.9107463557990546e-03 -1.1611211741924142e-03 0.0000000000000000e+00  2.0147873615760498e-04 3.1232155843740868e-04 0.0000000000000000e+00  2.8708319779295411e-03 -6.1646954666356923e-03 0.0000000000000000e+00  -4.1435976962962359e-04 1.2557365916998988e-03 0.0000000000000000e+00  2.1907401171857420e-04 -3.1452715081547959e-03 0.0000000000000000e+00  -1.9463040654676012e-04 1.0042305658358726e-03 0.0000000000000000e+00  -1.9796909645833138e-04 9.4515129728732657e-04 0.0000000000000000e+00  2.7452988421221270e-04 -2.7691724046887065e-03 0.0000000000000000e+00  -1.2103372015915257e-03 1.6323779843807236e-03 0.0000000000000000e+00  -3.1395990129793607e-04 1.2003557042863000e-03 0.0000000000000000e+00  6.0440939774189420e-04 2.6732555490602558e-03 0.0000000000000000e+00  -3.7408298487534965e-04 3.1585046710551107e-05 0.0000000000000000e+00  2.0124220113869735e-04 2.9825696454071865e-03 0.0000000000000000e+00  5.2650754126016967e-04 1.8254502999749730e-03 0.0000000000000000e+00  -5.3901321355114364e-05 1.4787291668413027e-03 0.0000000000000000e+00  1.8335626108859521e-04 -1.2058786537815637e-03 0.0000000000000000e+00  -1.1342069604979132e-03 3.4099429422071070e-03 0.0000000000000000e+00  -1.8003553484846621e-03 -3.2574063754207665e-03 0.0000000000000000e+00  -1.2257654274012673e-03 1.3078175808389179e-03 0.0000000000000000e+00  7.5280682852462083e-04 2.8271817339878525e-03 0.0000000000000000e+00  -9.7513385554924819e-05 1.0754836311063704e-03 0.0000000000000000e+00  -1.0688237261348419e-03 5.0176619944321838e-03 0.0000000000000000e+00  2.4273197717431888e-04 1.5748286178107972e-03 0.0000000000000000e+00  -1.7807502036252610e-03 4.5167437157609108e-03 0.0000000000000000e+00  1.4503338774610442e-03 -1.7767061883215895e-03 0.0000000000000000e+00  4.2780065024491129e-05 1.9250348747049712e-03 0.0000000000000000e+00  -6.4051128614617400e-04 2.7213704557614814e-03 0.0000000000000000e+00  -7.2530592630133336e-04 3.4913928417087503e-04 0.0000000000000000e+00  2.9137216304438896e-03 8.5696998052740250e-04 0.0000000000000000e+00  3.0588003844445792e-04 9.0792845035413692e-04 0.0000000000000000e+00  -9.6496861005435954e-05 6.1365272431757757e-03 0.0000000000000000e+00  -1.0713152469230501e-03 2.1112157013299061e-03 0.0000000000000000e+00  5.9339949219403606e-04 -3.5703037808081854e-04 0.0000000000000000e+00  -5.6578984901679147e-04 2.4932137122622437e-03 0.0000000000000000e+00  4.8722452827422305e-04 4.0287372919303455e-03 0.0000000000000000e+00  -2.5633260681351975e-04 5.5540984863337054e-03 0.0000000000000000e+00  8.4433835864538035e-05 1.9116589034592446e-04 0.0000000000000000e+00  3.9235926662253406e-04 -8.8935419729523481e-04 0.0000000000000000e+00  8.3721200594968946e-04 -4.3266452528338155e-04 0.0000000000000000e+00  -7.1672715976033832e-04 2.3661955900990458e-03 0.0000000000000000e+00  6.5827938729062438e-05 1.6187174076104120e-03 0.0000000000000000e+00  -1.1629538111577130e-04 1.1120133318287509e-03 0.0000000000000000e+00  -3.0458867633920686e-03 4.5345514970558370e-03 0.0000000000000000e+00  1.1874953714986099e-03 -8.5974249889146735e-04 0.0000000000000000e+00  3.5131309678268258e-04 1.0693401355744486e-03 0.0000000000000000e+00  5.0860182084025071e-04 -1.8357607525670769e-03 0.0000000000000000e+00  -9.4605756889686564e-04 2.9611376870449318e-03 0.0000000000000000e+00  1.1702761908796678e-04 1.9906975464410222e-03 0.0000000000000000e+00  1.6671979934754755e-03 -1.6146850936544423e-03 0.0000000000000000e+00  1.5128302879625991e-04 -3.0805477281674095e-03 0.0000000000000000e+00  -1.9736504844800962e-03 1.0866659002741268e-03 0.0000000000000000e+00  -1.4408800078841520e-03 1.5103600407364989e-03 0.0000000000000000e+00  -9.0083760620738250e-04 2.0344522426750250e-03 0.0000000000000000e+00  -1.7330691671513286e-04 -2.2896236666895627e-03 0.0000000000000000e+00  3.6482043412015862e-04 -1.1499233643827980e-03 0.0000000000000000e+00  -6.0801559051008370e-04 -8.1420120889248385e-03 0.0000000000000000e+00  -1.6996539432386061e-03 4.1033611829778081e-03 0.0000000000000000e+00  -1.1695879952867944e-04 4.5226834558340220e-04 0.0000000000000000e+00  -6.0516341991603047e-05 2.4265757878392988e-03 0.0000000000000000e+00  -1.0376877397926711e-04 7.1357290819466963e-04 0.0000000000000000e+00  7.6276280595554769e-04 -2.6700778988194302e-03 0.0000000000000000e+00  -1.0283498916143496e-03 7.7772430348604970e-04 0.0000000000000000e+00  8.5011796810107538e-04 -1.5008898419586591e-03 0.0000000000000000e+00  -2.4478196529022613e-04 2.1226037521035893e-03 0.0000000000000000e+00  4.7672455572203494e-04 1.4964359417771577e-03 0.0000000000000000e+00  -6.9259724224636217e-05 1.0694485622155098e-03 0.0000000000000000e+00  -1.3444950631386989e-03 6.4718038354818260e-04 0.0000000000000000e+00  1.1027864362728123e-03 -1.4873370718440993e-03 0.0000000000000000e+00  -2.7427133995944940e-04 1.8039285949472007e-03 0.0000000000000000e+00  1.1488788533545978e-03 -1.0244966766641049e-03 0.0000000000000000e+00  -1.4523131028997998e-03 7.2983400008352710e-04 0.0000000000000000e+00  9.8090610186472426e-04 -1.8572379320847055e-03 0.0000000000000000e+00  1.3978811672762026e-03 1.0994022153607912e-03 0.0000000000000000e+00  2.6498690491833865e-07 1.0732041265718831e-03 0.0000000000000000e+00  -4.6668112370333733e-04 8.8489295611007921e-04 0.0000000000000000e+00  -4.9392633546723949e-04 1.1262898480117970e-03 0.0000000000000000e+00  3.2011628894262748e-04 -1.1817777126701332e-03 0.0000000000000000e+00  -8.6679345686151675e-06 -4.5617527014638398e-03 0.0000000000000000e+00  -4.0306479673596476e-04 8.1324254802499620e-04 0.0000000000000000e+00  -6.9517333421682988e-04 6.9666010020756749e-04 0.0000000000000000e+00  -2.9107882045006786e-04 5.9406134727502287e-04 0.0000000000000000e+00  1.0753595454618400e-04 1.8062036201617559e-03 0.0000000000000000e+00  -1.4660168450709196e-04 -2.6510334747989700e-04 0.0000000000000000e+00  -4.2151685064701738e-04 1.9482315285797591e-03 0.0000000000000000e+00  -4.6421495615219053e-04 2.3928734905929771e-03 0.0000000000000000e+00  1.3031170473123113e-03 4.6432903090126129e-04 0.0000000000000000e+00  4.2756756172800949e-04 2.7457831219005360e-03 0.0000000000000000e+00  -1.2545631639588528e-03 2.2786349042192610e-03 0.0000000000000000e+00  -1.2434959915250518e-03 3.6608083030129721e-03 0.0000000000000000e+00  -2.0360469784483484e-04 1.4824813127229685e-03 0.0000000000000000e+00  -2.2100508841118639e-04 1.5528182333079141e-03 0.0000000000000000e+00  1.1001310502369171e-03 5.4983594183956579e-05 0.0000000000000000e+00  3.5606104786235805e-03 -5.8133111190569557e-04 0.0000000000000000e+00  -2.0479255711396333e-03 4.4235264433013901e-03 0.0000000000000000e+00  -5.2047129873571683e-04 -3.9288070350511298e-03 0.0000000000000000e+00  -1.9251330308160169e-03 -6.3162093991151380e-04 0.0000000000000000e+00  -5.8189551591192963e-04 -5.9600970526346546e-04 0.0000000000000000e+00  7.5757955849787152e-04 5.4956599463022501e-03 0.0000000000000000e+00  -2.0532089005895353e-04 -6.8981516395832639e-04 0.0000000000000000e+00  -2.0793417290316575e-05 1.2009006596489760e-03 0.0000000000000000e+00  -8.9594409773812909e-04 2.0572326372174030e-03 0.0000000000000000e+00  -1.9095823922798828e-03 3.7419888251528883e-04 0.0000000000000000e+00  3.4825876021639022e-04 -9.8347772933356139e-06 0.0000000000000000e+00  -3.3572053337000524e-04 3.2271464884894977e-03 0.0000000000000000e+00  -3.7326747359925290e-04 1.0561220706396465e-04 0.0000000000000000e+00  2.4038123087182744e-03 -2.5398803709398617e-03 0.0000000000000000e+00  5.7430446630070829e-05 2.6660316866774173e-03 0.0000000000000000e+00  -1.1350093675097028e-03 6.0955538623863300e-04 0.0000000000000000e+00  2.6088739064818803e-05 1.1854189065965033e-03 0.0000000000000000e+00  2.3195094021382447e-06 1.1782276053279074e-03 0.0000000000000000e+00  -1.4830307831967449e-03 1.7099801514494930e-03 0.0000000000000000e+00  1.7141123192138613e-03 -1.4515131126136495e-03 0.0000000000000000e+00  -3.5027853978830713e-05 2.8362906806224972e-04 0.0000000000000000e+00  4.7947724382487518e-04 -1.1397992309419491e-03 0.0000000000000000e+00  -5.9907889079001040e-04 3.9897900263082533e-03 0.0000000000000000e+00  -4.3008295074252745e-03 2.1407578703516372e-03 0.0000000000000000e+00  -6.9733548584926879e-04 2.2368980894056393e-03 0.0000000000000000e+00  -1.4623381694121889e-04 3.9587752133474251e-03 0.0000000000000000e+00  -6.1096712569517239e-04 3.6769689161444421e-03 0.0000000000000000e+00  -3.4645861082929731e-04 -3.4991749370945010e-04 0.0000000000000000e+00  -1.4498906255279681e-04 3.0057938209351225e-03 0.0000000000000000e+00  3.2184498912818807e-03 5.8267833377762966e-04 0.0000000000000000e+00  -7.7639909715619129e-04 -7.2593598846500183e-04 0.0000000000000000e+00  -1.7079847789764867e-03 5.9775913917492459e-03 0.0000000000000000e+00  5.8121724750285035e-03 -3.1606418957097569e-03 0.0000000000000000e+00  -6.6915758877602027e-06 1.3402041897490897e-03 0.0000000000000000e+00  1.6908051841611456e-06 1.0244187794619067e-03 0.0000000000000000e+00  -4.1891841682851810e-04 4.1678170657285163e-03 0.0000000000000000e+00  4.0118000738967167e-05 1.0092766206444841e-03 0.0000000000000000e+00  2.5104376608809887e-03 -2.6337210634563742e-03 0.0000000000000000e+00  2.2887321071921591e-03 -2.7642787472564956e-03 0.0000000000000000e+00  -9.1818972899398218e-05 3.8724385804926966e-03 0.0000000000000000e+00  -2.1584716318709335e-03 4.8913221776237734e-03 0.0000000000000000e+00  -1.3002778770384278e-03 6.7484820591249975e-03 0.0000000000000000e+00  2.5362698539079773e-04 1.9523537356933959e-03 0.0000000000000000e+00  -5.4792666746895143e-03 6.0715640276754552e-04 0.0000000000000000e+00  -3.9131034106058702e-04 9.2561256490044199e-04 0.0000000000000000e+00  -2.3926139766372471e-05 1.8962031616707011e-03 0.0000000000000000e+00  -9.4655352098481946e-04 1.4529584484705010e-03 0.0000000000000000e+00  9.9925112063463189e-04 5.5947655369790947e-03 0.0000000000000000e+00  -3.8119162566115485e-04 -3.0958011468158503e-04 0.0000000000000000e+00  3.6071462409510355e-04 6.5102928018034118e-04 0.0000000000000000e+00  1.9622340140795612e-04 5.6782369681103158e-04 0.0000000000000000e+00  5.5362975317253425e-04 -5.2431181497224416e-04 0.0000000000000000e+00  -8.8862579532718192e-04 2.0522099058760982e-03 0.0000000000000000e+00  1.0946760838605836e-03 -1.6014931609750554e-03 0.0000000000000000e+00  1.0796851591635187e-03 -6.7452369788530901e-04 0.0000000000000000e+00  1.2993924148260157e-03 5.9313155923087965e-05 0.0000000000000000e+00  7.2064452555280897e-03 1.9840071201530753e-03 0.0000000000000000e+00  4.4667982845729304e-03 -3.5778888219239330e-03 0.0000000000000000e+00  2.1123312931350560e-03 -5.0764636433967298e-03 0.0000000000000000e+00  -1.6991173568519794e-03 3.2737613661371068e-03 0.0000000000000000e+00  -1.1985050119258127e-04 5.7649601275253873e-03 0.0000000000000000e+00  3.0199027832004938e-04 1.7763296559535318e-03 0.0000000000000000e+00  -1.6188563488509014e-03 4.3357595311678656e-03 0.0000000000000000e+00  2.5371066857377313e-03 -8.4838315116982565e-04 0.0000000000000000e+00  -8.0984766654438592e-05 1.2020165896970934e-03 0.0000000000000000e+00  1.1130400304856648e-03 -7.4372531818143908e-04 0.0000000000000000e+00  7.1042923108144873e-04 1.9313235533862600e-03 0.0000000000000000e+00  2.4172642405155074e-03 -2.0742336072055267e-03 0.0000000000000000e+00  1.3410338067373828e-03 -2.6324679863011903e-03 0.0000000000000000e+00  8.2433965730244164e-04 1.1739566267756213e-03 0.0000000000000000e+00  -6.6855164072254889e-04 2.6679581836943386e-04 0.0000000000000000e+00  6.2616726142279114e-04 7.2705184621079159e-04 0.0000000000000000e+00  -1.0359857971505774e-04 1.3540574212804514e-03 0.0000000000000000e+00  8.4915601380196792e-04 -7.8471640554166988e-05 0.0000000000000000e+00  3.8613637672540568e-04 -3.2650609978959570e-04 0.0000000000000000e+00  -2.4462968072988536e-05 8.9246454164231806e-04 0.0000000000000000e+00  1.3351843208922026e-04 -4.4848345418408179e-05 0.0000000000000000e+00  4.4936542380296187e-04 -8.7638140770884333e-05 0.0000000000000000e+00  5.8444220382984765e-04 1.3320040978824976e-04 0.0000000000000000e+00  -5.2005450955268850e-04 3.7700385657545160e-03 0.0000000000000000e+00  8.3131513681150571e-04 -7.4359685252447399e-04 0.0000000000000000e+00  -1.3213853017357915e-03 5.3003148823814175e-03 0.0000000000000000e+00  6.5083031315810321e-04 7.5904126044145474e-03 0.0000000000000000e+00  -3.3220486280944547e-03 2.0346573392548938e-03 0.0000000000000000e+00  -3.6906018264825757e-04 3.8370834385670449e-03 0.0000000000000000e+00  3.1450972827131128e-03 -9.9666981322807748e-04 0.0000000000000000e+00  -3.3611264154247088e-03 5.5187440194637647e-03 0.0000000000000000e+00  -1.7887977049918968e-04 1.3177331423228124e-03 0.0000000000000000e+00  1.3515634625793001e-04 2.0289122667225320e-03 0.0000000000000000e+00  -7.5679749373002987e-04 1.3743913479769185e-03 0.0000000000000000e+00  1.3954155220436302e-03 -5.3001563933069177e-03 0.0000000000000000e+00  -1.0229982744802593e-04 8.7333843322632903e-05 0.0000000000000000e+00  -5.7175133291353561e-05 2.3825699608090935e-03 0.0000000000000000e+00  -1.3005261466083342e-03 1.4336874124587415e-03 0.0000000000000000e+00  1.8336062945565482e-03 -1.7437523143215802e-03 0.0000000000000000e+00  4.5659579434046186e-04 6.1561871030783573e-04 0.0000000000000000e+00  -9.4548202501357832e-04 9.5926319051028541e-04 0.0000000000000000e+00  -1.2405663502228189e-03 4.0909549528006274e-03 0.0000000000000000e+00  2.8154874419463374e-03 -5.8844483768063800e-04 0.0000000000000000e+00  -2.4750523522012904e-04 1.2032934327684190e-03 0.0000000000000000e+00  -4.8107121335765973e-04 6.2708817818044429e-04 0.0000000000000000e+00  -5.7641666156326094e-04 4.1273479897507674e-03 0.0000000000000000e+00  2.8161398608050691e-04 2.1599024510608475e-03 0.0000000000000000e+00  3.3769318672504951e-04 1.2385798122788777e-03 0.0000000000000000e+00  -1.6242613642235143e-03 2.9814259242133389e-03 0.0000000000000000e+00  -1.1200336930403689e-03 -1.2242911377437619e-03 0.0000000000000000e+00  -1.2425705057012956e-03 8.5540689962455450e-04 0.0000000000000000e+00  -2.8899994922654802e-04 4.2933093906807216e-03 0.0000000000000000e+00  -2.2788389658661345e-04 1.0020844572051029e-03 0.0000000000000000e+00  6.0300356817783070e-04 4.1891248727175499e-03 0.0000000000000000e+00  -6.8392213785673905e-04 1.4158012082582869e-03 0.0000000000000000e+00  -6.5792965960823264e-04 3.5752233975002881e-03 0.0000000000000000e+00  -1.0787120442898564e-03 1.2675172120850758e-03 0.0000000000000000e+00  5.0056227436912255e-04 -2.9523197959928555e-04 0.0000000000000000e+00  -2.5965467622443724e-05 1.1350617925147181e-03 0.0000000000000000e+00  2.0655789805308329e-04 9.7710612083971621e-04 0.0000000000000000e+00  2.3041419468129785e-04 9.0457453747762513e-04 0.0000000000000000e+00  -1.2027379825876260e-03 2.6365819773767835e-03 0.0000000000000000e+00  5.0998327514880683e-04 -2.2540377656613021e-03 0.0000000000000000e+00  -6.8708358240498319e-04 2.0326804352062693e-03 0.0000000000000000e+00  -6.8366252491864103e-06 1.4329760186497331e-03 0.0000000000000000e+00  -1.2891900248208773e-03 2.9218935708970510e-03 0.0000000000000000e+00  1.4757694531181227e-04 -2.9011156695008997e-04 0.0000000000000000e+00  2.1189162626187867e-04 1.2036365779236849e-03 0.0000000000000000e+00  3.2870643993377518e-04 1.4713576757528963e-03 0.0000000000000000e+00  2.8216890251912914e-03 6.9525811266965745e-03 0.0000000000000000e+00  -8.6233505638596360e-04 2.6326282592027427e-03 0.0000000000000000e+00  -8.1723611494701788e-04 -1.7649464128737091e-03 0.0000000000000000e+00  -4.8658847775695085e-05 1.1728717637824345e-03 0.0000000000000000e+00  -5.5300376674705847e-05 2.5393959576412084e-03 0.0000000000000000e+00  -5.1878050508544389e-05 6.5891498529671832e-05 0.0000000000000000e+00  -7.5484048080646073e-04 4.9288317701206858e-04 0.0000000000000000e+00  -1.1753644006859739e-03 1.5824602345328252e-03 0.0000000000000000e+00  6.4114008766938662e-04 -1.7790478456865238e-03 0.0000000000000000e+00  2.7875075340060987e-03 -2.1327038175146503e-03 0.0000000000000000e+00  3.2201654250854427e-04 2.2396103185135850e-04 0.0000000000000000e+00  -3.1482305439044223e-04 5.2721424999107994e-04 0.0000000000000000e+00  -4.4791040309060244e-04 1.2687952603609185e-03 0.0000000000000000e+00  -1.0832280174043825e-04 1.2511465310824201e-03 0.0000000000000000e+00  -1.2141229296867368e-04 1.3822181484791441e-03 0.0000000000000000e+00  -3.1018304904779463e-03 3.5116864505349444e-03 0.0000000000000000e+00  -1.8045344289817110e-03 6.3605724956021532e-03 0.0000000000000000e+00  -1.8057109256388364e-04 -2.9215445390074514e-03 0.0000000000000000e+00  -1.7821371061418098e-03 3.6750495825109680e-03 0.0000000000000000e+00  -1.0688389769830442e-05 -5.1640328218435314e-03 0.0000000000000000e+00  4.4924119918400866e-03 -4.2396319330133452e-03 0.0000000000000000e+00  6.5591309853779288e-04 1.7983183603509450e-03 0.0000000000000000e+00  -1.0516601500906161e-04 9.0792334459829601e-04 0.0000000000000000e+00  1.0398335529860851e-03 -2.7895677450993136e-04 0.0000000000000000e+00  2.5462244631149848e-04 -1.5842485399330318e-03 0.0000000000000000e+00  -1.8225554416215933e-03 1.9011707972945173e-03 0.0000000000000000e+00  -8.1974664075247874e-05 1.2538113113169695e-03 0.0000000000000000e+00  -5.6414306934034133e-04 -4.5064843212659408e-03 0.0000000000000000e+00  3.5188941207647162e-03 -2.4600675115877808e-05 0.0000000000000000e+00  -6.2276771584767864e-05 -1.8614886782299484e-03 0.0000000000000000e+00  1.5481602235032741e-03 -6.6398526049478695e-03 0.0000000000000000e+00  7.4353282148705859e-04 1.4588917513458977e-03 0.0000000000000000e+00  -3.6775433480520692e-04 3.3314465399533486e-03 0.0000000000000000e+00  5.2775900182641493e-04 -3.4089785560836546e-04 0.0000000000000000e+00  1.9106178033857870e-03 5.1349086486817720e-04 0.0000000000000000e+00  -4.2492720159181948e-05 1.4053072664661033e-04 0.0000000000000000e+00  -3.3224262251299258e-03 6.8118022929339467e-03 0.0000000000000000e+00  1.2021562380832746e-04 3.3883787581939352e-03 0.0000000000000000e+00  1.3001808041156566e-03 7.5324078368273198e-03 0.0000000000000000e+00  1.2054569577918229e-04 9.5162174737363340e-05 0.0000000000000000e+00  8.3620604574409797e-05 1.1548027005293324e-03 0.0000000000000000e+00  1.5854760850009977e-03 -4.6476193361092994e-04 0.0000000000000000e+00  8.3701753277943321e-08 -7.0247448568991474e-06 0.0000000000000000e+00  -1.9223335292571078e-04 1.1092309374906057e-03 0.0000000000000000e+00  -8.8001046602715184e-04 1.8873769400592738e-03 0