<?xml version="1.0"?>
<VTKFile type="UnstructuredGrid"  version="0.1"  >
<UnstructuredGrid>
<Piece  NumberOfPoints="1385" NumberOfCells="2640">
<Points>
<DataArray  type="Float64"  NumberOfComponents="3"  format="ascii">0 0 0  1 0 0  1 1 0  0 1 0  0.5 0 0  1 0.5 0  0.5 1 0  0 0.5 0  0.5 0.5 0  0 0.25 0  0.25 0 0  0.25 1 0  0 0.75 0  1 0.25 0  0.75 0 0  1 0.75 0  0.75 1 0  0.7083333333333333 0.2916666666666667 0  0.2916666666666666 0.7083333333333334 0  0.375 0.25 0  0.75 0.625 0  0.2569444444444444 0.4652777777777778 0  0.5366379310344828 0.7535919540229885 0  0.1875 0.1875 0  0.8125 0.8125 0  0.869047619047619 0.375 0  0.1450441919191919 0.6052714646464646 0  0.375 0.8690476190476191 0  0.5526960784313725 0.1825980392156862 0  0.8385416666666666 0.1614583333333334 0  0.1614583333333333 0.8385416666666667 0  0.6736111111111112 0.4652777777777778 0  0.1367521367521368 0.3477564102564102 0  0.6570970491253563 0.8648656830417855 0  0.5102479397556124 0.3386260301221938 0  0.3654513888888889 0.5737847222222222 0  0.6929750044954185 0.1362784921584263 0  0.388576102743835 0.411911725237599 0  0.6091269841269842 0.5942460317460317 0  0.875 0.6875 0  0.427278890279516 0.119889445139758 0  0.8544456845238095 0.5213913690476191 0  0.125 0 0  0 0.125 0  1 0.875 0  0.875 1 0  0.1280008648150532 0.4769292340226777 0  0.2695382451711197 0.3321750950221553 0  0.7031567235715964 0.7447810921428012 0  0.625 0 0  0.375 0 0  0.125 1 0  0.875 0 0  0 0.375 0  0 0.625 0  1 0.375 0  0.375 1 0  1 0.125 0  0 0.875 0  0.625 1 0  1 0.625 0  0.2979288363930608 0.1201429454643536 0  0.410919540229885 0.7484605911330049 0  0.5325041980395562 0.878905151526474 0  0.4831670727569156 0.6331060043826487 0  0.1735997378973042 0.7204747378973043 0  0.2534919507575758 0.5772372159090909 0  0.2633928571428572 0.8876488095238095 0  0.8199404761904761 0.2730654761904762 0  0.75830270586982 0.3919383189517417 0  0.5750282248382511 0.4237522353023667 0  0.6008360210023379 0.2794828358598495 0  0.08163442644334186 0.6821295860397322 0  0.08333333333333333 0.1875 0  0.2028380815996574 0.08844602719988583 0  0.2766521142611967 0.2325436572164097 0  0.90625 0.78125 0  0.890625 0.890625 0  0.7545696325008384 0.8973565441669461 0  0.5625 0.08086590340834317 0  0.09077380952380953 0.09077380952380952 0  0.4610923478694773 0.209034015149656 0  0.7542527598351648 0.5248380520595106 0  0.6459235536037465 0.3619913988405765 0  0.7560381768882634 0.20506142233852 0  0.07073252688172042 0.8125 0  0.0924753097241701 0.9078102849914793 0  0.9292674731182795 0.1875 0  0.9075246902758297 0.09218971500852073 0  0.8125 0.07073252688172045 0  0.2400955776842301 0.7869705776842302 0  0.9121050213379069 0.2781978201831695 0  0.7916878157143976 0.7239689078571988 0  0.9345238095238094 0.4375 0  0.4375 0.9345238095238095 0  0.3725616989755203 0.6651895248862173 0  0.06536271996350887 0.5625 0  0.9348362560379583 0.5625 0  0.456646798987055 0.8277247094351965 0  0.1875 0.9355758238725954 0  0.6169761231634859 0.6939779188977889 0  0.6226854751147515 0.7827911461419014 0  0.3305695598137626 0.7901697871282585 0  0.5865305325818898 0.5101085479043448 0  0.6622701297028378 0.2177663989757395 0  0.1354166666666667 0.2591702279202279 0  0 0.3125 0  0.2094429575680048 0.3936361846162499 0  0.836666296419157 0.607917407161686 0  0.6875 1 0  0.214261555450504 0.6492551722020035 0  0 0.4375 0  0.07731537126068377 0.40625 0  0.3427725432967068 0.4879566233699599 0  0.3550792513951871 0.3331953632609953 0  0.4462473953896857 0.2887834789342508 0  0.4747801464819794 0.417386052030127 0  0.8229836475148948 0.4443292349237342 0  0.7322605135514757 0.8199240278289671 0  0.6756431877205955 0.5468989748126787 0  0.1968419507215863 0.5194573482612496 0  0.3285590277777778 0.9345238095238095 0  0.8125 1 0  0.4198917601920009 0.5134893045331258 0  0.5232405503206691 0.2595791787880157 0  1 0.9375 0  0.1987510870015086 0.3025185951894431 0  0.5625 1 0  0.6005390654136388 0.9228110509230952 0  0.6411254848194414 0.07704872765442942 0  0.3357233162523242 0.1855113224530532 0  0.6730653396610877 0.6393887462324165 0  0.310966987234063 0.6240019765311626 0  0.7368737836204349 0.07457755202327881 0  0.6192316414418171 0.1485238406378594 0  0.5432429670607106 0.678552703844006 0  0.4754371679695679 0.7103946803120881 0  0.07501324890749672 0.3043839897335739 0  0.5358146975860403 0.5688321463205916 0  0.3115271739500156 0.3982137365971444 0  0.3625191397122174 0.0767854603650549 0  0.5024029442563831 0.1264128223758444 0  0.4375 0 0  0.4699946908887376 0.06379961173775725 0  0.9375 0.71875 0  0.9272105898044465 0.635671179608893 0  0.9375 1 0  0.6690971819568612 0.9331530898202766 0  0.1073454944778885 0.7499206387638554 0  0.8699082999280406 0.2232403652524313 0  0.5773118091863964 0.3548027349159383 0  0.1354166666666667 0.1428571428571428 0  0.3125 0 0  0.8241684193077341 0.9257452995055244 0  0.4352314948354036 0.3586940847489378 0  0.4351301473778832 0.5819726043539077 0  0.8073232928518163 0.3419398170341962 0  0.7775949246947366 0.1298519409204575 0  0.6875 0 0  0.7413513991851041 0.457933324954483 0  0.939453125 0.841796875 0  0.5630355154606987 0.8171875156478349 0  0.9345238095238095 0.3461466592368577 0  0.9375 0 0  1 0.0625 0  0.0625 1 0  0 0.9375 0  0.06552178593177167 0.4969053669623468 0  0.1424866619031703 0.4130277709291224 0  0.1275287182444726 0.5422946908002588 0  0.2637686595586339 0.06413888464529549 0  0.2524263535491086 0.1697437503243817 0  0.7367218397988525 0.6888573970660841 0  0.0625 0 0  0 0.0625 0  0.8463594539285995 0.7578283617857982 0  0.3128751192101563 0.2851997374369947 0  0.4015281788351144 0.1806421385113692 0  0.1910251795116588 0.4553332197174453 0  0.287797471442006 0.5222621440543902 0  0.3962628745986055 0.8097380085535307 0  0.3505895299554843 0.7304878890838692 0  0.5019151500495276 0.9356042615328103 0  0.9374389419410134 0.4999931039076005 0  0.3125 1 0  0.1875 1 0  1 0.5625 0  0.4375 1 0  1 0.3125 0  1 0.4375 0  0.8125 0 0  1 0.1875 0  0.5625 0 0  0.1875 0 0  0 0.1875 0  0 0.5625 0  0 0.6875 0  0 0.8125 0  1 0.6875 0  1 0.8125 0  0.8021696218581627 0.6612893947866073 0  0.06154922295426143 0.6239401126946708 0  0.9359375 0.9359375 0  0.4666158024849896 0.7691515918155014 0  0.2318201265217025 0.7064974250277525 0  0.1565954253579966 0.6635489312486841 0  0.1598132503680848 0.7787147500325552 0  0.3146529991605639 0.8510876378205265 0  0.1461873209418733 0.05982804528877814 0  0.06109554988524315 0.2446551776247686 0  0.8054950308560754 0.5564226538848541 0  0.470541749491976 0.8853316336952531 0  0.6948472567465137 0.4042308563372457 0  0.8802828472348889 0.4658893256343853 0  0.6788075634946739 0.7974194205806069 0  0.2155048659603867 0.2428201584940968 0  0.8131223143423806 0.2132171049028394 0  0.4330798005432235 0.6671274900735726 0  0.6015279126162613 0.2187368078743274 0  0.8061636571464289 0.8703766630361714 0  0.7008230445061776 0.3478568388444072 0  0.8638466246958771 0.3147095987735538 0  0.204801534004265 0.8789209409594009 0  0.2449006736431132 0.9424182882803838 0  0.7611268409371427 0.2643056884799992 0  0.7552800864046191 0.7678006649959446 0  0.5983639638906616 0.864113435029236 0  0.1956559506814437 0.577281203577426 0  0.3527670268164207 0.1320469097565204 0  0.7530364577483248 0.3262386077083089 0  0.4535919187979363 0.4690107087451527 0  0.8824869791666666 0.8336588541666666 0  0.8814453125 0.9451171875 0  0.5582987942628019 0.622421666543858 0  0.6817532446064828 0.6939001801354731 0  0.3830295138888889 0.9450968952922078 0  0.4140603937012541 0.05211333372716105 0  0.5535864501303013 0.3060591985391672 0  0.6560130086346878 0.2729726562211558 0  0.890203140221684 0.5948314305427268 0  0.7043857725999024 0.593980890020804 0  0.5105843922695152 0.8016828014338627 0  0.05365910753708378 0.7315110031682004 0  0.616904573672261 0.4621186633436136 0  0.5338511646455415 0.387875898899613 0  0.5231769258947843 0.4477682463140762 0  0.650302973237622 0.7370722302085519 0  0.3927483139621257 0.4662414504529014 0  0.8034595960585199 0.4972538342758211 0  0.7738337841682438 0.9496376207663251 0  0.7193737507158268 0.954685447650112 0  0.482525916480686 0.5528257169991676 0  0.2533501157346781 0.2809495420003238 0  0.3118487924482243 0.5702930126570319 0  0.6257598847669529 0.4104163315430518 0  0.1354166666666667 0.1955605158730158 0  0.04166666666666666 0.15625 0  0.3956448985530264 0.6174149462065157 0  0.8102897701818546 0.3938784238208349 0  0.2641154190013625 0.8344469561943118 0  0.642852220770013 0.5068794586563659 0  0.05271458179508221 0.355846947336007 0  0.7021551360070266 0.8921457280225779 0  0.5692125776683765 0.1328512638850284 0  0.5206162811937602 0.04865158770992991 0  0.6001838442201555 0.04540556991297563 0  0.2597716608242787 0.4118346398477178 0  0.4040584599473195 0.3179589136784675 0  0.1480337679295207 0.8941560631483065 0  0.1344356707112281 0.9466251177415842 0  0.7114696411829317 0.4983917389078826 0  0.7585704698442475 0.5751926345944629 0  0.2189131956390871 0.04022068508159698 0  0.2476935455192043 0.1123642267635843 0  0.185995005654517 0.1365524537205238 0  0.6223414373308711 0.643380839165121 0  0.5732602596637543 0.7190051747306219 0  0.268358222364537 0.6586246524467934 0  0.3265879848129173 0.2369791782191225 0  0.1267095595787346 0.7034787238999181 0  0.1115202922226038 0.6421997933884982 0  0.3128688392940203 0.07260997451790079 0  0.550724900485678 0.9253360991633187 0  0.7142608810459105 0.2384904702214873 0  0.7045869185243887 0.1871826897887429 0  0.890625 0.734375 0  0.953125 0.765625 0  0.2111812642821677 0.8286209446459138 0  0.9590293078204457 0.09375 0  0.953431269039847 0.1435719386408004 0  0.04097069217955424 0.90625 0  0.04656873096015299 0.8564280613591996 0  0.1078743037981226 0.8541621766048062 0  0.8921256962018773 0.1458378233951939 0  0.8521576979194619 0.1084496634207678 0  0.8655663982740958 0.05464346096571447 0  0.04005659640905543 0.09375 0  0.1001448316533417 0.04246776244228261 
[...]
<PointData  Vectors="f_9649-0"> 
<DataArray  type="Float64"  Name="f_9649-0"  NumberOfComponents="3" format="ascii">7.0458247040846743e-03 3.1662486295300613e-03 0.0000000000000000e+00  1.2652181431625012e-03 -3.1087517754997077e-04 0.0000000000000000e+00  3.5974084717224114e-03 2.2523525565715371e-04 0.0000000000000000e+00  4.4192481515341209e-03 3.1717675959547611e-04 0.0000000000000000e+00  2.5563987051918230e-03 -5.0042476687726673e-03 0.0000000000000000e+00  8.6590288160021437e-04 1.6115616237725690e-04 0.0000000000000000e+00  1.1597790897219832e-03 -2.1965627017579741e-04 0.0000000000000000e+00  3.1581522258798326e-03 -1.2855522550458849e-03 0.0000000000000000e+00  -1.7774740837188586e-04 -5.1863618585001946e-04 0.0000000000000000e+00  7.2323896276022858e-03 3.4834371856100636e-04 0.0000000000000000e+00  2.8322191561567863e-03 -2.7700941972084621e-03 0.0000000000000000e+00  -2.0590474867763388e-04 1.6447632720757960e-03 0.0000000000000000e+00  6.6929674184246103e-03 -1.1772883750468047e-03 0.0000000000000000e+00  -2.6999069346060579e-04 4.8895553904706036e-04 0.0000000000000000e+00  4.9162642365433709e-04 1.5541060769073429e-03 0.0000000000000000e+00  2.5169507002690697e-03 -1.6679814235438719e-04 0.0000000000000000e+00  2.0788616896160799e-03 -3.9966227786321492e-04 0.0000000000000000e+00  1.2905805606362075e-03 -1.0403999873544961e-03 0.0000000000000000e+00  1.4519809944661987e-03 -4.8505305027206260e-04 0.0000000000000000e+00  -1.2115959207010464e-03 1.8510207417799661e-03 0.0000000000000000e+00  1.8107137476594658e-03 5.2436771758664113e-04 0.0000000000000000e+00  2.2495335641090938e-03 -2.0800267162825212e-03 0.0000000000000000e+00  1.5192174481873690e-03 6.2368542675246726e-04 0.0000000000000000e+00  -1.5540228457437031e-03 -3.1192626350020902e-03 0.0000000000000000e+00  1.3742853932756857e-03 -1.6800638594646018e-04 0.0000000000000000e+00  2.5049679590978444e-03 1.0337134368619970e-04 0.0000000000000000e+00  -1.2175623600736941e-03 1.1510794341874457e-03 0.0000000000000000e+00  3.0321922534329998e-03 8.4447788637548806e-05 0.0000000000000000e+00  3.5552766252977238e-03 7.5473680785440012e-04 0.0000000000000000e+00  -1.7480853161020622e-04 2.8139023673317962e-04 0.0000000000000000e+00  -8.4678245200071737e-04 -2.4275550649977234e-04 0.0000000000000000e+00  2.4733324042377851e-04 -1.6683191999870186e-03 0.0000000000000000e+00  -1.4148852470896403e-03 5.5306732657039049e-04 0.0000000000000000e+00  1.3093837977403919e-03 -1.2791967876697188e-04 0.0000000000000000e+00  -9.7294032041037330e-04 -1.5701170549753791e-03 0.0000000000000000e+00  5.4096678383509754e-03 2.9588200936880730e-05 0.0000000000000000e+00  -4.3637241377143645e-03 -1.5451159631267803e-04 0.0000000000000000e+00  1.8206129745929917e-03 2.2666157185867678e-03 0.0000000000000000e+00  3.4841880427790510e-04 1.2755702625562890e-03 0.0000000000000000e+00  1.3587259578072106e-03 1.6946087035132624e-05 0.0000000000000000e+00  1.5971226074670017e-03 -2.4674931392663223e-03 0.0000000000000000e+00  1.9625726026500701e-03 1.2911213023092220e-05 0.0000000000000000e+00  2.4721992558264603e-03 -1.8107286937474550e-03 0.0000000000000000e+00  5.4843163883109298e-03 -2.6817413320766974e-03 0.0000000000000000e+00  3.3180047138818376e-03 -2.9865228845828401e-04 0.0000000000000000e+00  1.7522973695486188e-03 -1.5316736667718945e-03 0.0000000000000000e+00  1.6200562679916724e-03 -6.6711108520887605e-04 0.0000000000000000e+00  6.2221879989368531e-03 3.0059768012393270e-04 0.0000000000000000e+00  9.9419063573804732e-04 2.1888633160705709e-04 0.0000000000000000e+00  4.7080374061484968e-03 -9.7166276114728158e-04 0.0000000000000000e+00  2.4523731883202195e-03 -2.0987164756519649e-04 0.0000000000000000e+00  -6.5542109979935313e-04 7.8584203507811405e-04 0.0000000000000000e+00  2.7600558829435737e-03 -5.9306843416501555e-04 0.0000000000000000e+00  7.1327027103562715e-03 -4.5763402852370808e-04 0.0000000000000000e+00  7.0344793412188914e-03 5.6118103764416730e-05 0.0000000000000000e+00  -1.8576780532499493e-05 2.5839310639047541e-04 0.0000000000000000e+00  2.9299437365959538e-04 -1.1190689742679371e-04 0.0000000000000000e+00  1.9450741077005123e-04 8.2893070509929088e-04 0.0000000000000000e+00  2.7674358750432921e-03 -1.0018141101387466e-03 0.0000000000000000e+00  1.4596540763533459e-03 -6.5301736253652070e-05 0.0000000000000000e+00  1.6283661728982283e-03 -8.8016338326817522e-05 0.0000000000000000e+00  -3.6251508213487930e-04 -1.0985319244563327e-03 0.0000000000000000e+00  -5.6417191948463657e-04 1.1319187097065015e-03 0.0000000000000000e+00  8.9500253333429643e-04 1.9675042816982055e-04 0.0000000000000000e+00  4.9688401558703812e-05 8.6859770721560208e-04 0.0000000000000000e+00  1.0391363123414847e-03 -1.9563637001188050e-03 0.0000000000000000e+00  1.9893624495370718e-03 7.3263894239016946e-04 0.0000000000000000e+00  4.9234397340506100e-04 2.5399930259999978e-04 0.0000000000000000e+00  -2.0175978049431836e-03 1.2455810250889534e-04 0.0000000000000000e+00  -3.5053236764623618e-04 -1.0950436827538350e-03 0.0000000000000000e+00  5.5199170770313540e-04 -9.7878500851134986e-04 0.0000000000000000e+00  5.9813264484293287e-03 6.6156271450277192e-04 0.0000000000000000e+00  -6.8927021660167287e-04 7.8955332644655796e-04 0.0000000000000000e+00  -3.5860491029287766e-03 -1.4164957247067159e-03 0.0000000000000000e+00  -5.3675370733255118e-03 1.5239916550894065e-03 0.0000000000000000e+00  4.1897064784412030e-03 -1.4270660963664407e-03 0.0000000000000000e+00  1.8128383502536280e-03 -4.0289129803666355e-04 0.0000000000000000e+00  1.5863261163148231e-03 1.3473553587713834e-06 0.0000000000000000e+00  1.4399158527696309e-03 -4.5441940117023621e-04 0.0000000000000000e+00  -2.6199030922986208e-03 -1.2240553743335793e-04 0.0000000000000000e+00  3.9253665290720895e-03 -2.1630081321525208e-03 0.0000000000000000e+00  -3.5433251128642682e-03 7.2281020045296602e-04 0.0000000000000000e+00  1.6106671096707875e-03 -7.2483821904854536e-05 0.0000000000000000e+00  4.1296331454310773e-04 -3.1923180524555888e-05 0.0000000000000000e+00  2.2025994386381423e-03 1.0572223125025300e-03 0.0000000000000000e+00  2.8869785361701323e-03 5.9953628084993707e-04 0.0000000000000000e+00  2.0414719714111859e-03 3.4859779898075365e-04 0.0000000000000000e+00  3.5799432438991864e-03 -8.2704667859667463e-04 0.0000000000000000e+00  -9.2295285811603298e-04 6.4527512667864029e-04 0.0000000000000000e+00  2.3002010854839957e-03 -1.5440792545736359e-03 0.0000000000000000e+00  -4.4626067840274888e-04 8.0867175845235209e-04 0.0000000000000000e+00  2.2110586657624266e-03 6.1971596804927644e-04 0.0000000000000000e+00  1.5268166515548991e-03 -1.0773085516551251e-05 0.0000000000000000e+00  2.2928502546645398e-03 -2.7588303011854946e-04 0.0000000000000000e+00  1.9208025305490965e-03 8.7594823120412964e-05 0.0000000000000000e+00  -1.7495881878227140e-03 -9.1089620795280926e-05 0.0000000000000000e+00  -1.5301690928365111e-03 3.1728434471584056e-03 0.0000000000000000e+00  1.8957433018307408e-03 2.7060276885772121e-05 0.0000000000000000e+00  2.0933549647809044e-03 -1.2367256858019857e-03 0.0000000000000000e+00  -4.8232431656354644e-04 5.9691836943553554e-04 0.0000000000000000e+00  9.4770133351346675e-04 -6.2737218726236421e-04 0.0000000000000000e+00  1.2963653451292440e-03 2.7588216025159728e-04 0.0000000000000000e+00  8.1085960998652715e-04 -3.8059971834988630e-03 0.0000000000000000e+00  2.3824931860168506e-03 -7.8998841131509368e-04 0.0000000000000000e+00  -5.3678587378732886e-04 2.6255865916759795e-03 0.0000000000000000e+00  -1.6352739908918857e-03 -1.5217256101154228e-03 0.0000000000000000e+00  1.0441274070677926e-03 -1.6226513401946926e-03 0.0000000000000000e+00  2.6184962162056587e-04 -1.3239857769998164e-03 0.0000000000000000e+00  8.8880184465836641e-04 2.5504474632035063e-04 0.0000000000000000e+00  1.4958597828287391e-03 -2.7122776453225041e-04 0.0000000000000000e+00  2.4163136700816945e-04 1.2231109410866365e-03 0.0000000000000000e+00  4.4571261473563186e-03 -1.9565558249856375e-03 0.0000000000000000e+00  -1.1565311417467156e-03 2.2608564169167777e-04 0.0000000000000000e+00  -2.8772775273647991e-03 -1.0862484214360197e-03 0.0000000000000000e+00  -9.8715800843367316e-04 -1.7375832524984462e-03 0.0000000000000000e+00  2.6064795637978418e-03 1.4955879305332898e-03 0.0000000000000000e+00  7.9821943977265164e-04 -2.6107689237479842e-03 0.0000000000000000e+00  9.3035450498094916e-05 6.1342689265475711e-04 0.0000000000000000e+00  1.3440474657676290e-03 1.9163460804836338e-05 0.0000000000000000e+00  8.1039008520948598e-04 -9.3625763487622604e-04 0.0000000000000000e+00  -3.7028892046496141e-03 -6.2535857114482145e-04 0.0000000000000000e+00  2.9261481212758378e-05 5.9104922506982352e-05 0.0000000000000000e+00  2.9570172496785436e-03 -1.0060351563562181e-03 0.0000000000000000e+00  3.4230368849683850e-03 -7.3629520795910463e-03 0.0000000000000000e+00  -1.4990590884003863e-03 1.5022571524199743e-03 0.0000000000000000e+00  3.9751124668725860e-03 2.1149202250766059e-05 0.0000000000000000e+00  2.1895642246948627e-03 -9.3469274730954160e-04 0.0000000000000000e+00  1.0997308979013201e-03 3.7061689029538412e-05 0.0000000000000000e+00  1.4377769671781130e-03 -4.6835829713938676e-05 0.0000000000000000e+00  2.9195624931703588e-03 -2.1506739932653897e-03 0.0000000000000000e+00  5.0978231354539489e-03 7.3442452850342040e-04 0.0000000000000000e+00  2.1135116687284912e-03 -1.2674513965130541e-04 0.0000000000000000e+00  -2.5294935755826964e-03 4.7898308084850258e-04 0.0000000000000000e+00  4.8196902874280386e-03 -2.8044955769968699e-04 0.0000000000000000e+00  3.3226204530662014e-03 -1.9395934959990334e-03 0.0000000000000000e+00  2.2376598089338352e-03 -7.3154357230633413e-04 0.0000000000000000e+00  2.5105343075365869e-03 -8.2557669667100144e-04 0.0000000000000000e+00  -1.9260386771519289e-03 -1.5983399947970436e-04 0.0000000000000000e+00  2.3409816361336872e-03 -2.6208047751492413e-04 0.0000000000000000e+00  1.8914999049357581e-03 -2.0881772221265651e-03 0.0000000000000000e+00  6.5407693711497109e-04 3.1044723781811626e-03 0.0000000000000000e+00  -1.0831373149652081e-03 -1.0597263526732263e-03 0.0000000000000000e+00  2.3955333427687366e-03 -5.6599303747161944e-04 0.0000000000000000e+00  8.0100940953907289e-05 3.4394966953224667e-04 0.0000000000000000e+00  1.9057387949367494e-03 -5.8224167252434074e-05 0.0000000000000000e+00  1.4587904764534138e-03 -1.2205959846610555e-05 0.0000000000000000e+00  2.7135584386250838e-03 2.7794085298451084e-04 0.0000000000000000e+00  1.1465839410173719e-03 8.3199099964470730e-05 0.0000000000000000e+00  -2.6937001880920058e-03 8.8572811147884082e-04 0.0000000000000000e+00  4.0408289269001267e-04 3.6679034863499189e-04 0.0000000000000000e+00  5.3494799709757060e-03 -7.3652514581193504e-04 0.0000000000000000e+00  3.3690269002743686e-04 -1.7928372543697115e-04 0.0000000000000000e+00  3.8333298995282573e-03 -1.3563407227749253e-03 0.0000000000000000e+00  1.1536105161546737e-03 3.1412517144693191e-04 0.0000000000000000e+00  3.6834362710262904e-03 -1.2219307862906389e-03 0.0000000000000000e+00  5.1426492876331426e-04 -3.1003677841304363e-04 0.0000000000000000e+00  3.3668181104927605e-03 2.3515657868920434e-04 0.0000000000000000e+00  3.2627648481847620e-03 -3.8201532120967214e-03 0.0000000000000000e+00  3.0029373540318657e-03 -2.1624667244871402e-04 0.0000000000000000e+00  -5.1939621768680357e-04 4.1059186432531637e-04 0.0000000000000000e+00  2.2626653723704731e-04 -9.2663676138092640e-04 0.0000000000000000e+00  6.2216755578982591e-04 3.6946704317593533e-04 0.0000000000000000e+00  1.7908556033580363e-05 1.7386821490876889e-03 0.0000000000000000e+00  2.9359423236777942e-03 -1.0321710443641902e-03 0.0000000000000000e+00  -1.5850013812428625e-03 6.4628257705832710e-04 0.0000000000000000e+00  -7.0825970042709939e-04 1.0537067815446818e-03 0.0000000000000000e+00  4.4719606254133900e-03 -9.6200430422998585e-04 0.0000000000000000e+00  -3.8475727109165232e-03 8.9795004642110546e-04 0.0000000000000000e+00  6.4261050243296812e-03 -1.1018113606102125e-03 0.0000000000000000e+00  1.1293569206732427e-03 -7.9588981216979554e-04 0.0000000000000000e+00  -1.7610560850962855e-03 -7.1978866773967775e-04 0.0000000000000000e+00  5.7775389996271567e-03 -1.7041771890993148e-05 0.0000000000000000e+00  1.4031039236665913e-03 -4.9763118539973387e-05 0.0000000000000000e+00  2.4448018340640933e-03 -2.2195159502662095e-03 0.0000000000000000e+00  4.0203167953670564e-03 -1.5785362611413205e-03 0.0000000000000000e+00  1.4569859528879882e-03 -3.7784356433550714e-05 0.0000000000000000e+00  -1.0295181638937173e-03 -2.5494351958471780e-04 0.0000000000000000e+00  3.1983362307938549e-03 7.6884626698883328e-04 0.0000000000000000e+00  -2.3816314944112996e-03 2.5663683032539756e-03 0.0000000000000000e+00  1.8381139973262166e-03 1.1955049345895574e-03 0.0000000000000000e+00  9.8689062286731887e-05 1.3251370069972948e-04 0.0000000000000000e+00  2.7634065910056554e-03 7.9298840187980808e-04 0.0000000000000000e+00  5.0908640644792378e-04 4.9953734022906062e-04 0.0000000000000000e+00  1.5578003862468032e-03 -5.3175640781496906e-04 0.0000000000000000e+00  7.2389539300486932e-04 1.7777182039718340e-03 0.0000000000000000e+00  -9.4796721822035528e-04 4.6858115813178385e-04 0.0000000000000000e+00  1.4447808965583572e-03 8.3776532831483829e-05 0.0000000000000000e+00  5.2903657981758184e-04 -2.6191777897970371e-05 0.0000000000000000e+00  -6.3060206867092449e-05 4.6691171442946738e-04 0.0000000000000000e+00  4.8961000497782915e-04 4.0589202932052825e-04 0.0000000000000000e+00  2.8152135241536536e-03 -7.7324193223601303e-04 0.0000000000000000e+00  -1.1558576047944959e-03 5.6930468475304167e-04 0.0000000000000000e+00  2.7813759208791216e-03 1.5930740888591322e-04 0.0000000000000000e+00  4.0048093980638577e-03 -7.8734114369265553e-04 0.0000000000000000e+00  2.5700476888398114e-03 -1.0127489705542181e-03 0.0000000000000000e+00  9.0514832341806323e-03 -1.1082108947060372e-03 0.0000000000000000e+00  9.7730281202183800e-04 -6.8012452150339412e-04 0.0000000000000000e+00  5.2677543719301971e-03 -7.5749829926589581e-04 0.0000000000000000e+00  1.8699527902698351e-03 -2.0504302323152209e-04 0.0000000000000000e+00  3.7168095631899970e-03 -5.5355763604349889e-04 0.0000000000000000e+00  1.2863016677103463e-03 -2.4720262621520856e-04 0.0000000000000000e+00  1.4719308445007519e-04 1.1063716617530233e-03 0.0000000000000000e+00  3.5723603575701294e-04 -1.0193051247932739e-04 0.0000000000000000e+00  1.9850835890258363e-03 -2.7267589753947769e-04 0.0000000000000000e+00  9.1832729192690900e-04 -5.4138034868483464e-04 0.0000000000000000e+00  1.2613008609909417e-03 9.0094721037118210e-04 0.0000000000000000e+00  4.9423156902341980e-03 -2.3786015637046222e-03 0.0000000000000000e+00  1.5998138950804267e-03 -1.8610837671206404e-03 0.0000000000000000e+00  2.2226555712699927e-03 -2.3678992308910551e-03 0.0000000000000000e+00  -3.0900891600958535e-03 5.7485068095402443e-03 0.0000000000000000e+00  1.4493648818525813e-03 4.4658367234685524e-06 0.0000000000000000e+00  1.1860433159343459e-03 -1.4903016232455004e-04 0.0000000000000000e+00  -1.5100510612849783e-03 3.3859841653403619e-03 0.0000000000000000e+00  2.3392536775082486e-03 7.6744613436396659e-05 0.0000000000000000e+00  1.2712712785982281e-03 2.0255197234901178e-04 0.0000000000000000e+00  5.7133768426484884e-03 -4.9275821527464039e-04 0.0000000000000000e+00  1.9247087470669699e-03 -2.9192224394191048e-03 0.0000000000000000e+00  1.9374904970836742e-03 -1.1116314670040249e-03 0.0000000000000000e+00  -1.7966695876020340e-04 -3.2253516688462573e-04 0.0000000000000000e+00  1.0534052444429803e-03 -4.3682296890860332e-05 0.0000000000000000e+00  3.8114215794394718e-03 5.5329953253431844e-04 0.0000000000000000e+00  1.4544047643589284e-03 -9.5316730143861869e-05 0.0000000000000000e+00  3.5557329311033736e-05 -4.4193015985316087e-04 0.0000000000000000e+00  1.6095031008050292e-03 -7.0233141648317720e-04 0.0000000000000000e+00  -4.9263326326921429e-04 1.5587517354998014e-04 0.0000000000000000e+00  1.3480895676235784e-03 8.7939594779759610e-05 0.0000000000000000e+00  1.3893478842052754e-03 7.1867802427360975e-06 0.0000000000000000e+00  4.4087030832843845e-03 -2.0520785882442868e-03 0.0000000000000000e+00  -5.9923091965862830e-04 -2.1306250994269217e-03 0.0000000000000000e+00  -1.7079605516287051e-03 -1.2165599552728607e-06 0.0000000000000000e+00  1.5702406364029556e-03 -1.1438286753995251e-03 0.0000000000000000e+00  5.3562988582689245e-04 8.1327950058989883e-04 0.0000000000000000e+00  1.9587335648151094e-03 -3.3621036190024554e-04 0.0000000000000000e+00  -1.5996217610971973e-04 -3.1425392124697141e-04 0.0000000000000000e+00  4.2009147298501990e-04 1.0404247689245623e-04 0.0000000000000000e+00  1.7526777512138385e-03 -3.2608821722340380e-04 0.0000000000000000e+00  2.0155977322967407e-03 -1.0737311416283736e-03 0.0000000000000000e+00  3.3274245595167960e-03 -9.6656493054091315e-04 0.0000000000000000e+00  1.8541232404119701e-03 -1.7828443835894497e-04 0.0000000000000000e+00  1.4072564394551424e-03 -7.6548762065451175e-05 0.0000000000000000e+00  2.9234935823135000e-03 -5.3383244491523144e-05 0.0000000000000000e+00  1.1934880826045982e-03 -2.1116626153404970e-05 0.0000000000000000e+00  1.8450853449360062e-03 7.0833791916650969e-04 0.0000000000000000e+00  1.9230504658938616e-03 -7.2744390832047594e-04 0.0000000000000000e+00  -1.0343655605081201e-03 1.6467255886940546e-03 0.0000000000000000e+00  -2.5573336943117385e-03 6.2489497501069444e-04 0.0000000000000000e+00  6.8491475575519368e-04 1.0511461704750414e-03 0.0000000000000000e+00  -1.6229970342668545e-03 -4.5704532550124228e-04 0.0000000000000000e+00  8.9245890039142618e-04 -3.8375683512396598e-04 0.0000000000000000e+00  2.0961347322090429e-03 -5.1903454749478934e-04 0.0000000000000000e+00  1.7319822665735215e-03 -2.4294002889918348e-04 0.0000000000000000e+00  -1.1727179082466595e-03 -7.7148944495415684e-04 0.0000000000000000e+00  -5.6266969422986773e-04 1.1347934729031110e-03 0.0000000000000000e+00  -7.2743679943854198e-04 1.4883383161470535e-03 0.0000000000000000e+00  1.5075775015113944e-03 -5.5572178384405305e-04 0.0000000000000000e+00  -3.1497397042137623e-03 7.3217900810088098e-04 0.0000000000000000e+00  -3.3187050620228959e-03 2.0146423465031691e-03 0.0000000000000000e+00  -8.4891778133782726e-04 1.8386911604308127e-03 0.0000000000000000e+00  1.9594724018178809e-03 -3.8905037087929293e-04 0.0000000000000000e+00  1.5963596592860642e-03 1.8151595423955866e-03 0.0000000000000000e+00  6.4987152285589118e-04 1.3011113281712000e-03 0.0000000000000000e+00  4.3150124810106185e-03 -1.6051518027042273e-03 0.0000000000000000e+00  1.1702768998101735e-03 -5.5629557636682780e-05 0.0000000000000000e+00  1.2702495531961293e-03 -1.6113117739595629e-03 0.0000000000000000e+00  -2.7455591868210854e-03 8.8533192536911374e-04 0.0000000000000000e+00  -1.8441866173449502e-03 1.2336453764450151e-03 0.0000000000000000e+00  -3.3358580978089755e-03 1.5264856878771356e-03 0.0000000000000000e+00  -4.1761114280305001e-04 3.3617796460432204e-04 0.0000000000000000e+00  1.9005162894985726e-03 6.9645670036332487e-04 0.0000000000000000e+00  4.1408748278751845e-04 6.9298185457723272e-04 0.0000000000000000e+00  1.0402867082543451e-04 2.7445725303057217e-04 0.0000000000000000e+00  7.4242318526221386e-04 2.5157078036235688e-04 0.0000000000000000e+00  2.5348728337244860e-05 -1.0671196690608896e-03 0.0000000000000000e+00  -6.1018389500917683e-04 -2.6614053077976253e-04 0.0000000000000000e+00  1.7398635533827924e-03 2.3747786658298614e-03 0.0000000000000000e+00  1.9241314284879399e-03 6.1347883870304862e-05 0.0000000000000000e+00  7.9466699144264399e-04 -5.5842039836575988e-04 0.0000000000000000e+00  1.9730605652543696e-04 9.7794350123763365e-04 0.0000000000000000e+00  3.6686327901095119e-03 -1.2474792499795652e-03 0.0000000000000000e+00  -6.7377616163994910e-04 -9.7154755106684853e-04 0.0000000000000000e+00  -1.2815715121146786e-03 -8.1334305321059588e-04 0.000000000