<?xml version="1.0"?>
<VTKFile type="UnstructuredGrid"  version="0.1"  >
<UnstructuredGrid>
<Piece  NumberOfPoints="1385" NumberOfCells="2640">
<Points>
<DataArray  type="Float64"  NumberOfComponents="3"  format="ascii">0 0 0  1 0 0  1 1 0  0 1 0  0.5 0 0  1 0.5 0  0.5 1 0  0 0.5 0  0.5 0.5 0  0 0.25 0  0.25 0 0  0.25 1 0  0 0.75 0  1 0.25 0  0.75 0 0  1 0.75 0  0.75 1 0  0.7083333333333333 0.2916666666666667 0  0.2916666666666666 0.7083333333333334 0  0.375 0.25 0  0.75 0.625 0  0.2569444444444444 0.4652777777777778 0  0.5366379310344828 0.7535919540229885 0  0.1875 0.1875 0  0.8125 0.8125 0  0.869047619047619 0.375 0  0.1450441919191919 0.6052714646464646 0  0.375 0.8690476190476191 0  0.5526960784313725 0.1825980392156862 0  0.8385416666666666 0.1614583333333334 0  0.1614583333333333 0.8385416666666667 0  0.6736111111111112 0.4652777777777778 0  0.1367521367521368 0.3477564102564102 0  0.6570970491253563 0.8648656830417855 0  0.5102479397556124 0.3386260301221938 0  0.3654513888888889 0.5737847222222222 0  0.6929750044954185 0.1362784921584263 0  0.388576102743835 0.411911725237599 0  0.6091269841269842 0.5942460317460317 0  0.875 0.6875 0  0.427278890279516 0.119889445139758 0  0.8544456845238095 0.5213913690476191 0  0.125 0 0  0 0.125 0  1 0.875 0  0.875 1 0  0.1280008648150532 0.4769292340226777 0  0.2695382451711197 0.3321750950221553 0  0.7031567235715964 0.7447810921428012 0  0.625 0 0  0.375 0 0  0.125 1 0  0.875 0 0  0 0.375 0  0 0.625 0  1 0.375 0  0.375 1 0  1 0.125 0  0 0.875 0  0.625 1 0  1 0.625 0  0.2979288363930608 0.1201429454643536 0  0.410919540229885 0.7484605911330049 0  0.5325041980395562 0.878905151526474 0  0.4831670727569156 0.6331060043826487 0  0.1735997378973042 0.7204747378973043 0  0.2534919507575758 0.5772372159090909 0  0.2633928571428572 0.8876488095238095 0  0.8199404761904761 0.2730654761904762 0  0.75830270586982 0.3919383189517417 0  0.5750282248382511 0.4237522353023667 0  0.6008360210023379 0.2794828358598495 0  0.08163442644334186 0.6821295860397322 0  0.08333333333333333 0.1875 0  0.2028380815996574 0.08844602719988583 0  0.2766521142611967 0.2325436572164097 0  0.90625 0.78125 0  0.890625 0.890625 0  0.7545696325008384 0.8973565441669461 0  0.5625 0.08086590340834317 0  0.09077380952380953 0.09077380952380952 0  0.4610923478694773 0.209034015149656 0  0.7542527598351648 0.5248380520595106 0  0.6459235536037465 0.3619913988405765 0  0.7560381768882634 0.20506142233852 0  0.07073252688172042 0.8125 0  0.0924753097241701 0.9078102849914793 0  0.9292674731182795 0.1875 0  0.9075246902758297 0.09218971500852073 0  0.8125 0.07073252688172045 0  0.2400955776842301 0.7869705776842302 0  0.9121050213379069 0.2781978201831695 0  0.7916878157143976 0.7239689078571988 0  0.9345238095238094 0.4375 0  0.4375 0.9345238095238095 0  0.3725616989755203 0.6651895248862173 0  0.06536271996350887 0.5625 0  0.9348362560379583 0.5625 0  0.456646798987055 0.8277247094351965 0  0.1875 0.9355758238725954 0  0.6169761231634859 0.6939779188977889 0  0.6226854751147515 0.7827911461419014 0  0.3305695598137626 0.7901697871282585 0  0.5865305325818898 0.5101085479043448 0  0.6622701297028378 0.2177663989757395 0  0.1354166666666667 0.2591702279202279 0  0 0.3125 0  0.2094429575680048 0.3936361846162499 0  0.836666296419157 0.607917407161686 0  0.6875 1 0  0.214261555450504 0.6492551722020035 0  0 0.4375 0  0.07731537126068377 0.40625 0  0.3427725432967068 0.4879566233699599 0  0.3550792513951871 0.3331953632609953 0  0.4462473953896857 0.2887834789342508 0  0.4747801464819794 0.417386052030127 0  0.8229836475148948 0.4443292349237342 0  0.7322605135514757 0.8199240278289671 0  0.6756431877205955 0.5468989748126787 0  0.1968419507215863 0.5194573482612496 0  0.3285590277777778 0.9345238095238095 0  0.8125 1 0  0.4198917601920009 0.5134893045331258 0  0.5232405503206691 0.2595791787880157 0  1 0.9375 0  0.1987510870015086 0.3025185951894431 0  0.5625 1 0  0.6005390654136388 0.9228110509230952 0  0.6411254848194414 0.07704872765442942 0  0.3357233162523242 0.1855113224530532 0  0.6730653396610877 0.6393887462324165 0  0.310966987234063 0.6240019765311626 0  0.7368737836204349 0.07457755202327881 0  0.6192316414418171 0.1485238406378594 0  0.5432429670607106 0.678552703844006 0  0.4754371679695679 0.7103946803120881 0  0.07501324890749672 0.3043839897335739 0  0.5358146975860403 0.5688321463205916 0  0.3115271739500156 0.3982137365971444 0  0.3625191397122174 0.0767854603650549 0  0.5024029442563831 0.1264128223758444 0  0.4375 0 0  0.4699946908887376 0.06379961173775725 0  0.9375 0.71875 0  0.9272105898044465 0.635671179608893 0  0.9375 1 0  0.6690971819568612 0.9331530898202766 0  0.1073454944778885 0.7499206387638554 0  0.8699082999280406 0.2232403652524313 0  0.5773118091863964 0.3548027349159383 0  0.1354166666666667 0.1428571428571428 0  0.3125 0 0  0.8241684193077341 0.9257452995055244 0  0.4352314948354036 0.3586940847489378 0  0.4351301473778832 0.5819726043539077 0  0.8073232928518163 0.3419398170341962 0  0.7775949246947366 0.1298519409204575 0  0.6875 0 0  0.7413513991851041 0.457933324954483 0  0.939453125 0.841796875 0  0.5630355154606987 0.8171875156478349 0  0.9345238095238095 0.3461466592368577 0  0.9375 0 0  1 0.0625 0  0.0625 1 0  0 0.9375 0  0.06552178593177167 0.4969053669623468 0  0.1424866619031703 0.4130277709291224 0  0.1275287182444726 0.5422946908002588 0  0.2637686595586339 0.06413888464529549 0  0.2524263535491086 0.1697437503243817 0  0.7367218397988525 0.6888573970660841 0  0.0625 0 0  0 0.0625 0  0.8463594539285995 0.7578283617857982 0  0.3128751192101563 0.2851997374369947 0  0.4015281788351144 0.1806421385113692 0  0.1910251795116588 0.4553332197174453 0  0.287797471442006 0.5222621440543902 0  0.3962628745986055 0.8097380085535307 0  0.3505895299554843 0.7304878890838692 0  0.5019151500495276 0.9356042615328103 0  0.9374389419410134 0.4999931039076005 0  0.3125 1 0  0.1875 1 0  1 0.5625 0  0.4375 1 0  1 0.3125 0  1 0.4375 0  0.8125 0 0  1 0.1875 0  0.5625 0 0  0.1875 0 0  0 0.1875 0  0 0.5625 0  0 0.6875 0  0 0.8125 0  1 0.6875 0  1 0.8125 0  0.8021696218581627 0.6612893947866073 0  0.06154922295426143 0.6239401126946708 0  0.9359375 0.9359375 0  0.4666158024849896 0.7691515918155014 0  0.2318201265217025 0.7064974250277525 0  0.1565954253579966 0.6635489312486841 0  0.1598132503680848 0.7787147500325552 0  0.3146529991605639 0.8510876378205265 0  0.1461873209418733 0.05982804528877814 0  0.06109554988524315 0.2446551776247686 0  0.8054950308560754 0.5564226538848541 0  0.470541749491976 0.8853316336952531 0  0.6948472567465137 0.4042308563372457 0  0.8802828472348889 0.4658893256343853 0  0.6788075634946739 0.7974194205806069 0  0.2155048659603867 0.2428201584940968 0  0.8131223143423806 0.2132171049028394 0  0.4330798005432235 0.6671274900735726 0  0.6015279126162613 0.2187368078743274 0  0.8061636571464289 0.8703766630361714 0  0.7008230445061776 0.3478568388444072 0  0.8638466246958771 0.3147095987735538 0  0.204801534004265 0.8789209409594009 0  0.2449006736431132 0.9424182882803838 0  0.7611268409371427 0.2643056884799992 0  0.7552800864046191 0.7678006649959446 0  0.5983639638906616 0.864113435029236 0  0.1956559506814437 0.577281203577426 0  0.3527670268164207 0.1320469097565204 0  0.7530364577483248 0.3262386077083089 0  0.4535919187979363 0.4690107087451527 0  0.8824869791666666 0.8336588541666666 0  0.8814453125 0.9451171875 0  0.5582987942628019 0.622421666543858 0  0.6817532446064828 0.6939001801354731 0  0.3830295138888889 0.9450968952922078 0  0.4140603937012541 0.05211333372716105 0  0.5535864501303013 0.3060591985391672 0  0.6560130086346878 0.2729726562211558 0  0.890203140221684 0.5948314305427268 0  0.7043857725999024 0.593980890020804 0  0.5105843922695152 0.8016828014338627 0  0.05365910753708378 0.7315110031682004 0  0.616904573672261 0.4621186633436136 0  0.5338511646455415 0.387875898899613 0  0.5231769258947843 0.4477682463140762 0  0.650302973237622 0.7370722302085519 0  0.3927483139621257 0.4662414504529014 0  0.8034595960585199 0.4972538342758211 0  0.7738337841682438 0.9496376207663251 0  0.7193737507158268 0.954685447650112 0  0.482525916480686 0.5528257169991676 0  0.2533501157346781 0.2809495420003238 0  0.3118487924482243 0.5702930126570319 0  0.6257598847669529 0.4104163315430518 0  0.1354166666666667 0.1955605158730158 0  0.04166666666666666 0.15625 0  0.3956448985530264 0.6174149462065157 0  0.8102897701818546 0.3938784238208349 0  0.2641154190013625 0.8344469561943118 0  0.642852220770013 0.5068794586563659 0  0.05271458179508221 0.355846947336007 0  0.7021551360070266 0.8921457280225779 0  0.5692125776683765 0.1328512638850284 0  0.5206162811937602 0.04865158770992991 0  0.6001838442201555 0.04540556991297563 0  0.2597716608242787 0.4118346398477178 0  0.4040584599473195 0.3179589136784675 0  0.1480337679295207 0.8941560631483065 0  0.1344356707112281 0.9466251177415842 0  0.7114696411829317 0.4983917389078826 0  0.7585704698442475 0.5751926345944629 0  0.2189131956390871 0.04022068508159698 0  0.2476935455192043 0.1123642267635843 0  0.185995005654517 0.1365524537205238 0  0.6223414373308711 0.643380839165121 0  0.5732602596637543 0.7190051747306219 0  0.268358222364537 0.6586246524467934 0  0.3265879848129173 0.2369791782191225 0  0.1267095595787346 0.7034787238999181 0  0.1115202922226038 0.6421997933884982 0  0.3128688392940203 0.07260997451790079 0  0.550724900485678 0.9253360991633187 0  0.7142608810459105 0.2384904702214873 0  0.7045869185243887 0.1871826897887429 0  0.890625 0.734375 0  0.953125 0.765625 0  0.2111812642821677 0.8286209446459138 0  0.9590293078204457 0.09375 0  0.953431269039847 0.1435719386408004 0  0.04097069217955424 0.90625 0  0.04656873096015299 0.8564280613591996 0  0.1078743037981226 0.8541621766048062 0  0.8921256962018773 0.1458378233951939 0  0.8521576979194619 0.1084496634207678 0  0.8655663982740958 0.05464346096571447 0  0.04005659640905543 0.09375 0  0.1001448316533417 0.04246776244228261 
[...]
<PointData  Vectors="f_9839-1"> 
<DataArray  type="Float64"  Name="f_9839-1"  NumberOfComponents="3" format="ascii">4.9922073056730453e-03 8.4051934675491088e-03 0.0000000000000000e+00  -1.0340817585285651e-03 1.9744542446191826e-03 0.0000000000000000e+00  1.1432205284433907e-04 3.8747270049881155e-03 0.0000000000000000e+00  -2.2366924324161491e-04 -2.4847155311282327e-03 0.0000000000000000e+00  -2.5444285079174894e-03 4.1160041713381793e-03 0.0000000000000000e+00  6.5975097573722839e-04 1.2768482648228090e-03 0.0000000000000000e+00  -7.5850524631647289e-05 1.6358587437790945e-03 0.0000000000000000e+00  -1.0719656904564251e-03 2.7882138736676234e-03 0.0000000000000000e+00  1.1714810621928757e-04 6.8257369942665300e-04 0.0000000000000000e+00  -1.2992608072553871e-03 5.1859464174754373e-03 0.0000000000000000e+00  -3.6580842541621165e-03 5.6541562213069402e-03 0.0000000000000000e+00  8.7651447247975671e-04 -7.9472806407841464e-05 0.0000000000000000e+00  7.1962002760769112e-05 1.4677045643604189e-03 0.0000000000000000e+00  3.5289705555964414e-04 -2.6015505087124979e-04 0.0000000000000000e+00  -8.8879794482621139e-04 3.1852351841067592e-03 0.0000000000000000e+00  -1.0377307901716351e-04 2.0990423593592196e-03 0.0000000000000000e+00  -1.4704374514684651e-04 2.5514802718482991e-03 0.0000000000000000e+00  -5.3570309346265483e-04 2.1992414817790375e-03 0.0000000000000000e+00  -1.2349881870117804e-03 3.3072881958771836e-03 0.0000000000000000e+00  1.9116226520222656e-03 -1.0073074033500520e-03 0.0000000000000000e+00  2.0178590729765292e-04 6.7465779753853733e-04 0.0000000000000000e+00  2.8722512132549711e-03 -5.9302401637320347e-03 0.0000000000000000e+00  -4.1401183121914261e-04 1.6509917582887476e-03 0.0000000000000000e+00  2.1951072601577399e-04 -3.0418051540865680e-03 0.0000000000000000e+00  -1.9475568468002558e-04 1.4564720252931533e-03 0.0000000000000000e+00  -1.9832721283515319e-04 1.2092669573550629e-03 0.0000000000000000e+00  2.7509489084686576e-04 -2.4833328653400353e-03 0.0000000000000000e+00  -1.2110154961522492e-03 2.0618666838411398e-03 0.0000000000000000e+00  -3.1371908388772116e-04 1.3452227349288540e-03 0.0000000000000000e+00  6.0491130328880756e-04 2.8398962462155538e-03 0.0000000000000000e+00  -3.7367592958291061e-04 4.2279184466100921e-04 0.0000000000000000e+00  2.0155932830778596e-04 3.2658506724582213e-03 0.0000000000000000e+00  5.2631272690354584e-04 1.9974267529331131e-03 0.0000000000000000e+00  -5.4115015858528228e-05 1.9382138558381875e-03 0.0000000000000000e+00  1.8393668349064729e-04 -9.9821137585319008e-04 0.0000000000000000e+00  -1.1340046839532498e-03 3.7094208877845617e-03 0.0000000000000000e+00  -1.8007233164361218e-03 -3.1201938210408753e-03 0.0000000000000000e+00  -1.2261648202725106e-03 1.5360435578454412e-03 0.0000000000000000e+00  7.5332664269052582e-04 3.1619039594220364e-03 0.0000000000000000e+00  -9.7682377090370625e-05 1.4797976385559587e-03 0.0000000000000000e+00  -1.0698543191092072e-03 5.1220106925116901e-03 0.0000000000000000e+00  2.4299575134716252e-04 1.9030643473324324e-03 0.0000000000000000e+00  -1.7878274464090671e-03 4.5348650621293137e-03 0.0000000000000000e+00  1.4428553827878499e-03 -1.7206153264991333e-03 0.0000000000000000e+00  3.9266714915490942e-05 2.4252377781803108e-03 0.0000000000000000e+00  -6.4493613266686104e-04 3.2658839392179784e-03 0.0000000000000000e+00  -7.2637289993347375e-04 5.7686492682641538e-04 0.0000000000000000e+00  2.9148765532509228e-03 1.0362137005470241e-03 0.0000000000000000e+00  3.0601208314169056e-04 1.3180261030458656e-03 0.0000000000000000e+00  -9.6999206973406686e-05 6.2096469168572074e-03 0.0000000000000000e+00  -1.0724762792976034e-03 2.1556065181245845e-03 0.0000000000000000e+00  5.9533989497172147e-04 1.0232932763818456e-04 0.0000000000000000e+00  -5.6580843726087421e-04 2.5932933122271313e-03 0.0000000000000000e+00  4.8595417987906848e-04 4.1955700264296892e-03 0.0000000000000000e+00  -2.5777507889027909e-04 5.8340715332036164e-03 0.0000000000000000e+00  8.4148380719172369e-05 4.6850079225148550e-04 0.0000000000000000e+00  3.9282195659024431e-04 -4.0453239858944453e-04 0.0000000000000000e+00  8.3867413975219460e-04 -2.6601147899507567e-04 0.0000000000000000e+00  -7.1621987378302579e-04 2.7564274162693368e-03 0.0000000000000000e+00  6.4756398353318879e-05 2.1338447408835405e-03 0.0000000000000000e+00  -1.1688244245813449e-04 1.5008127334214312e-03 0.0000000000000000e+00  -3.0473601830622627e-03 4.6232603107970614e-03 0.0000000000000000e+00  1.1879271556083761e-03 -4.8025717972916915e-04 0.0000000000000000e+00  3.5123584556619408e-04 1.5202148659996789e-03 0.0000000000000000e+00  5.0888475436722844e-04 -1.5000122355254826e-03 0.0000000000000000e+00  -9.4630888547439073e-04 3.3045195620896978e-03 0.0000000000000000e+00  1.1711220000848596e-04 2.2763591486914393e-03 0.0000000000000000e+00  1.6686741875912886e-03 -1.1912082886979083e-03 0.0000000000000000e+00  1.5144381554137859e-04 -2.8683987567811068e-03 0.0000000000000000e+00  -1.9742932059836453e-03 1.3473793279819314e-03 0.0000000000000000e+00  -1.4412213780191476e-03 1.7641304196490575e-03 0.0000000000000000e+00  -9.0111405590760402e-04 2.2275297546620384e-03 0.0000000000000000e+00  -1.7342170965330942e-04 -1.9778301723741652e-03 0.0000000000000000e+00  3.6499157071285914e-04 -1.0565939867773653e-03 0.0000000000000000e+00  -6.0859627183531770e-04 -8.0857862552246047e-03 0.0000000000000000e+00  -1.7000016606274495e-03 4.2414958860730826e-03 0.0000000000000000e+00  -1.1704788597370277e-04 8.9951387426431915e-04 0.0000000000000000e+00  -6.0839605558790644e-05 2.9243023360842955e-03 0.0000000000000000e+00  -1.0413378204069213e-04 1.1962095360072793e-03 0.0000000000000000e+00  7.6275805828355994e-04 -2.5751871807029613e-03 0.0000000000000000e+00  -1.0294888207685695e-03 8.2612023688929687e-04 0.0000000000000000e+00  8.5022199711117896e-04 -1.3561581651379856e-03 0.0000000000000000e+00  -2.4479478954977300e-04 2.4410438572241527e-03 0.0000000000000000e+00  4.7702556825805135e-04 1.7313024935356651e-03 0.0000000000000000e+00  -6.9157415334806561e-05 1.2461544081416491e-03 0.0000000000000000e+00  -1.3444181417041120e-03 1.0149880612097214e-03 0.0000000000000000e+00  1.1043561332289272e-03 -1.0764079569950274e-03 0.0000000000000000e+00  -2.7321419835559674e-04 1.9905771028346066e-03 0.0000000000000000e+00  1.1514527341124441e-03 -8.8369387722775621e-04 0.0000000000000000e+00  -1.4531506598077883e-03 8.4947299012697215e-04 0.0000000000000000e+00  9.8111380565964646e-04 -1.4799503251049016e-03 0.0000000000000000e+00  1.3991493607836943e-03 1.3260504516229574e-03 0.0000000000000000e+00  1.0987734567929658e-06 1.4837105423391988e-03 0.0000000000000000e+00  -4.6677558186641600e-04 1.1831046747084878e-03 0.0000000000000000e+00  -4.9339680859927858e-04 1.5868956223867394e-03 0.0000000000000000e+00  3.2054359184442108e-04 -8.4498677263885789e-04 0.0000000000000000e+00  -8.6751035444712632e-06 -4.3125803918715238e-03 0.0000000000000000e+00  -4.0383761482430973e-04 1.1659059508248486e-03 0.0000000000000000e+00  -6.9528342865388094e-04 1.1168565365360151e-03 0.0000000000000000e+00  -2.9061723383435028e-04 1.0261387399391967e-03 0.0000000000000000e+00  1.0799852189811459e-04 2.1849593592573385e-03 0.0000000000000000e+00  -1.4636236922106272e-04 1.5279095697294718e-04 0.0000000000000000e+00  -4.2144563953229491e-04 2.3379959643151063e-03 0.0000000000000000e+00  -4.6457639516432733e-04 2.6874604707677677e-03 0.0000000000000000e+00  1.3033012903917998e-03 6.3627359308614131e-04 0.0000000000000000e+00  4.2763502348909727e-04 2.8796583889976702e-03 0.0000000000000000e+00  -1.2556239460232081e-03 2.4181575686552342e-03 0.0000000000000000e+00  -1.2441519725505696e-03 3.8620866841967711e-03 0.0000000000000000e+00  -2.0371275416868051e-04 1.8483945399887262e-03 0.0000000000000000e+00  -2.2173500914933573e-04 2.0757411715000324e-03 0.0000000000000000e+00  1.1003550531845838e-03 3.6781813955649983e-04 0.0000000000000000e+00  3.5595191246625040e-03 -3.8661118985048546e-04 0.0000000000000000e+00  -2.0484636492981738e-03 4.6148408941480718e-03 0.0000000000000000e+00  -5.2067195043026162e-04 -3.6743159844642953e-03 0.0000000000000000e+00  -1.9258312559550239e-03 -4.4308292224889989e-04 0.0000000000000000e+00  -5.8172675198900207e-04 -4.1754460729952030e-04 0.0000000000000000e+00  7.5816978888615936e-04 5.7370438095471071e-03 0.0000000000000000e+00  -2.0591041096328775e-04 -4.0097254060732809e-04 0.0000000000000000e+00  -2.0703118360308704e-05 1.6477945460685545e-03 0.0000000000000000e+00  -8.9607976042800045e-04 2.3779088196471381e-03 0.0000000000000000e+00  -1.9101791836925329e-03 6.2885395914044390e-04 0.0000000000000000e+00  3.4785247875717741e-04 4.3603138951452407e-04 0.0000000000000000e+00  -3.3796086280729284e-04 3.7620709703037824e-03 0.0000000000000000e+00  -3.7328331698144584e-04 3.8061054028414531e-04 0.0000000000000000e+00  2.4048987922914832e-03 -2.3659768878612339e-03 0.0000000000000000e+00  5.3619453598190939e-05 3.1942788030065133e-03 0.0000000000000000e+00  -1.1352751548302353e-03 7.6718835947476335e-04 0.0000000000000000e+00  2.5460478550488797e-05 1.6927806924678407e-03 0.0000000000000000e+00  1.8500344429692736e-06 1.6523313086551951e-03 0.0000000000000000e+00  -1.4833298861220469e-03 1.8144383591014168e-03 0.0000000000000000e+00  1.7149592714732695e-03 -1.3310167862751136e-03 0.0000000000000000e+00  -3.4720222383402945e-05 6.4362005060968367e-04 0.0000000000000000e+00  4.8040050172699889e-04 -8.2705146513738529e-04 0.0000000000000000e+00  -5.9915792087294572e-04 4.1043584396968213e-03 0.0000000000000000e+00  -4.3028037577109756e-03 2.2774304348878865e-03 0.0000000000000000e+00  -6.9793423152501410e-04 2.6004275803039865e-03 0.0000000000000000e+00  -1.4574594530001193e-04 4.3279317563369264e-03 0.0000000000000000e+00  -6.1223639409719124e-04 3.8240921697570247e-03 0.0000000000000000e+00  -3.4623644235233839e-04 -3.7054937250533817e-05 0.0000000000000000e+00  -1.4468265510227357e-04 3.2202179112601923e-03 0.0000000000000000e+00  3.2191024267747524e-03 6.5392103194917748e-04 0.0000000000000000e+00  -7.7614671036505770e-04 -6.1316596744796477e-04 0.0000000000000000e+00  -1.7086248605854694e-03 6.0281027549679029e-03 0.0000000000000000e+00  5.8159359811372551e-03 -3.0878967169177826e-03 0.0000000000000000e+00  -7.0405407750256168e-06 1.7640933584629286e-03 0.0000000000000000e+00  1.0595294334495866e-06 1.4103487807710948e-03 0.0000000000000000e+00  -4.2200710501102945e-04 4.7208490622546850e-03 0.0000000000000000e+00  4.0404632101339981e-05 1.4920294686346649e-03 0.0000000000000000e+00  2.5117816852153942e-03 -2.2887423024858869e-03 0.0000000000000000e+00  2.2901277438898702e-03 -2.5681740338221876e-03 0.0000000000000000e+00  -9.1608948799116823e-05 4.0969123509570346e-03 0.0000000000000000e+00  -2.1585942591859806e-03 4.9739836106532098e-03 0.0000000000000000e+00  -1.3016809519247434e-03 6.7860030204666385e-03 0.0000000000000000e+00  2.5258413003925332e-04 2.4513897271490389e-03 0.0000000000000000e+00  -5.4817781979931059e-03 8.1631257777277485e-04 0.0000000000000000e+00  -3.9149443746105842e-04 1.2351585041975883e-03 0.0000000000000000e+00  -2.3478454004296893e-05 2.1399125439865337e-03 0.0000000000000000e+00  -9.4657472460997938e-04 1.5989353302521508e-03 0.0000000000000000e+00  9.9947382427522172e-04 5.6740860621854669e-03 0.0000000000000000e+00  -3.8083473087991305e-04 -2.3555258467575875e-05 0.0000000000000000e+00  3.5943725921279911e-04 1.1262646085348957e-03 0.0000000000000000e+00  1.9663151743046426e-04 9.9519937992069147e-04 0.0000000000000000e+00  5.5354986764293674e-04 -2.6816306402142816e-04 0.0000000000000000e+00  -8.8982868517766098e-04 2.1609779192345046e-03 0.0000000000000000e+00  1.0953893954463614e-03 -1.4629915759220386e-03 0.0000000000000000e+00  1.0812798463816324e-03 -2.1869974972119023e-04 0.0000000000000000e+00  1.2984491115811680e-03 4.7698824106389283e-04 0.0000000000000000e+00  7.2073873719438299e-03 2.2131895473153432e-03 0.0000000000000000e+00  4.4684652126614046e-03 -3.3791735349984094e-03 0.0000000000000000e+00  2.1124813544859964e-03 -4.8231663343540343e-03 0.0000000000000000e+00  -1.7023694704329088e-03 3.3279794919417547e-03 0.0000000000000000e+00  -1.1970632603529752e-04 5.8711925932344927e-03 0.0000000000000000e+00  3.0259167939972718e-04 2.1651649937649096e-03 0.0000000000000000e+00  -1.6255484870166508e-03 4.3527118383572911e-03 0.0000000000000000e+00  2.5324553254224987e-03 -8.1879801415249637e-04 0.0000000000000000e+00  -8.0683637931860779e-05 1.6337215484967830e-03 0.0000000000000000e+00  1.1135472880135994e-03 -5.8204310393289590e-04 0.0000000000000000e+00  7.1107474398819279e-04 2.0588484647424974e-03 0.0000000000000000e+00  2.4183480215613589e-03 -1.8515067538465849e-03 0.0000000000000000e+00  1.3415403257577047e-03 -2.3681419609901120e-03 0.0000000000000000e+00  8.2481956953805503e-04 1.5790209426091708e-03 0.0000000000000000e+00  -6.6876647956031008e-04 6.3166591223409990e-04 0.0000000000000000e+00  6.2584036769254493e-04 1.1938879778498495e-03 0.0000000000000000e+00  -1.0307379849416244e-04 1.6786292478984186e-03 0.0000000000000000e+00  8.4998782625483231e-04 4.0059610986733357e-04 0.0000000000000000e+00  3.8706757754106906e-04 1.3805089998301587e-04 0.0000000000000000e+00  -2.3617682663378843e-05 1.2540528613759221e-03 0.0000000000000000e+00  1.3373831495089398e-04 4.4689637781162385e-04 0.0000000000000000e+00  4.5009515180397669e-04 1.6179005825444162e-04 0.0000000000000000e+00  5.8498159004941042e-04 4.3774146502148547e-04 0.0000000000000000e+00  -5.1763634686616787e-04 3.8636040531510934e-03 0.0000000000000000e+00  8.3304483957340322e-04 -5.4998896404186615e-04 0.0000000000000000e+00  -1.3218079271344091e-03 5.3658220126970597e-03 0.0000000000000000e+00  6.4697978898552058e-04 7.6150676081619857e-03 0.0000000000000000e+00  -3.3259088814170754e-03 2.1191773993100870e-03 0.0000000000000000e+00  -3.6961686927631528e-04 4.0868874512216165e-03 0.0000000000000000e+00  3.1468829752309508e-03 -6.9189218109201914e-04 0.0000000000000000e+00  -3.3609887134595177e-03 5.8804768252353080e-03 0.0000000000000000e+00  -1.8032053728998093e-04 1.7343606195954289e-03 0.0000000000000000e+00  1.3173489538179960e-04 2.5009341665969591e-03 0.0000000000000000e+00  -7.5702480520141208e-04 1.7590492228407842e-03 0.0000000000000000e+00  1.3981362348258275e-03 -5.0202901199274874e-03 0.0000000000000000e+00  -1.0276660004292606e-04 5.9560871453273470e-04 0.0000000000000000e+00  -5.7720416350387363e-05 2.7787631921346052e-03 0.0000000000000000e+00  -1.3006386035509972e-03 1.7752029578271627e-03 0.0000000000000000e+00  1.8343069484380891e-03 -1.4320998685909874e-03 0.0000000000000000e+00  4.5709083157168201e-04 9.8019418151805665e-04 0.0000000000000000e+00  -9.4607120602420046e-04 1.3739389727340206e-03 0.0000000000000000e+00  -1.2419621029692866e-03 4.1279678530948593e-03 0.0000000000000000e+00  2.8161732422427098e-03 -4.7244034371214140e-04 0.0000000000000000e+00  -2.4754025864406242e-04 1.5416584184453528e-03 0.0000000000000000e+00  -4.8106951027979984e-04 1.0725828918433204e-03 0.0000000000000000e+00  -5.7638078192986237e-04 4.3867466917269027e-03 0.0000000000000000e+00  2.8212038055281416e-04 2.4661900759829721e-03 0.0000000000000000e+00  3.3798581190812175e-04 1.6697531559673275e-03 0.0000000000000000e+00  -1.6241772916263573e-03 3.1175033394373543e-03 0.0000000000000000e+00  -1.1202752285417773e-03 -1.0375456419654068e-03 0.0000000000000000e+00  -1.2421817524525250e-03 1.2009561549428042e-03 0.0000000000000000e+00  -2.8856978821051473e-04 4.4596346152482730e-03 0.0000000000000000e+00  -2.2846225345950037e-04 1.4809368845941707e-03 0.0000000000000000e+00  6.0333482604581234e-04 4.4249567138819456e-03 0.0000000000000000e+00  -6.8361435846813932e-04 1.6534241311271490e-03 0.0000000000000000e+00  -6.5726018817764914e-04 3.9904281558466488e-03 0.0000000000000000e+00  -1.0772039650818440e-03 1.7078355791868877e-03 0.0000000000000000e+00  5.0098087313081140e-04 -9.1352674414691033e-05 0.0000000000000000e+00  -2.5777218047951488e-05 1.5616302201284366e-03 0.0000000000000000e+00  2.0706098468163897e-04 1.4287705113031099e-03 0.0000000000000000e+00  2.3085586471910705e-04 1.1840119923656239e-03 0.0000000000000000e+00  -1.2036020221382203e-03 2.7364406196639301e-03 0.0000000000000000e+00  5.1038506520675007e-04 -2.0256367721748266e-03 0.0000000000000000e+00  -6.8720049926943277e-04 2.2940252439686299e-03 0.0000000000000000e+00  -6.6892712948309231e-06 1.9029604760978298e-03 0.0000000000000000e+00  -1.2928918198284050e-03 3.4320237575910600e-03 0.0000000000000000e+00  1.4801835638871848e-04 4.9393574488591958e-05 0.0000000000000000e+00  2.1242298456710935e-04 1.5882906502947228e-03 0.0000000000000000e+00  3.3107743452523647e-04 1.9269320784334124e-03 0.0000000000000000e+00  2.8221449590039903e-03 7.0159304864575358e-03 0.0000000000000000e+00  -8.6268320041030071e-04 2.8330462511268707e-03 0.0000000000000000e+00  -8.1711552030212472e-04 -1.5705996884011007e-03 0.0000000000000000e+00  -4.8999107415567038e-05 1.5382787043227485e-03 0.0000000000000000e+00  -5.4888981588922022e-05 2.8844431284299472e-03 0.0000000000000000e+00  -5.2044944946814595e-05 4.8091169622499144e-04 0.0000000000000000e+00  -7.5469271494328725e-04 8.2257479225414680e-04 0.0000000000000000e+00  -1.1755222422446354e-03 1.8574556158905378e-03 0.0000000000000000e+00  6.4161568991206444e-04 -1.5468392202096170e-03 0.0000000000000000e+00  2.7888864971372116e-03 -1.8754054282815397e-03 0.0000000000000000e+00  3.2201371798565819e-04 6.2454428450938197e-04 0.0000000000000000e+00  -3.1465070760014024e-04 7.7922002617111493e-04 0.0000000000000000e+00  -4.4801281554895505e-04 1.5800913781604878e-03 0.0000000000000000e+00  -1.0960475717105428e-04 1.7501636968194267e-03 0.0000000000000000e+00  -1.2255594600861286e-04 1.8774547050639406e-03 0.0000000000000000e+00  -3.1024943423984866e-03 3.8134442572028619e-03 0.0000000000000000e+00  -1.8050148098762162e-03 6.5171844928355819e-03 0.0000000000000000e+00  -1.8082813086020086e-04 -2.6337401247963736e-03 0.0000000000000000e+00  -1.7824324315801133e-03 3.9292226588853174e-03 0.0000000000000000e+00  -1.0225187551323557e-05 -5.0628394709598869e-03 0.0000000000000000e+00  4.4925986787440033e-03 -4.1667993604551767e-03 0.0000000000000000e+00  6.5641139542644091e-04 2.1177592454683695e-03 0.0000000000000000e+00  -1.0509990658186353e-04 1.1744747645186890e-03 0.0000000000000000e+00  1.0405791093111212e-03 1.2178490557654300e-04 0.0000000000000000e+00  2.5477740811438298e-04 -1.2872035824453231e-03 0.0000000000000000e+00  -1.8233124064170967e-03 2.0635302363479335e-03 0.0000000000000000e+00  -8.2630260909935136e-05 1.7292912686097538e-03 0.0000000000000000e+00  -5.6418272149533742e-04 -4.3848475863900180e-03 0.0000000000000000e+00  3.5207857352614327e-03 4.6663124511177570e-05 0.0000000000000000e+00  -6.1867043904852148e-05 -1.7838448960067659e-03 0.0000000000000000e+00  1.5485673663581956e-03 -6.4299531697885777e-03 0.0000000000000000e+00  7.4387772447128005e-04 1.6470490702864800e-03 0.0000000000000000e+00  -3.6705108312886552e-04 3.7467387665946492e-03 0.0000000000000000e+00  5.2866144951698108e-04 8.9063686810752948e-05 0.0000000000000000e+00  1.9115831093254976e-03 8.1507706506749305e-04 0.0000000000000000e+00  -4.2756806881562889e-05 4.8306153959612219e-04 0.0000000000000000e+00  -3.3262472145187136e-03 6.8494121238056021e-03 0.0000000000000000e+00  1.1975119398067858e-04 3.4676863593277245e-03 0.0000000000000000e+00  1.3010463010946294e-03 7.6180753300589144e-03 0.0000000000000000e+00  1.2096470604715468e-04 4.5043540148373613e-04 0.0000000000000000e+00  8.3807045483685631e-05 1.5392474917032552e-03 0.0000000000000000e+00  1.5862432434578634e-03 -1.4112470966398476e-04 0.0000000000000000e+00  3.3600218690972941e-07 1.3676590643355089e-04 0.0000000000000000e+00  -1.9247357238964217e-04 1.4378182540888533e-03 0.0000000000000000e+00  -8.7925774224683478e-04 2.1870038288903850e-03 0.00000000000