<?xml version="1.0"?>
<VTKFile type="UnstructuredGrid"  version="0.1"  >
<UnstructuredGrid>
<Piece  NumberOfPoints="1385" NumberOfCells="2640">
<Points>
<DataArray  type="Float64"  NumberOfComponents="3"  format="ascii">0 0 0  1 0 0  1 1 0  0 1 0  0.5 0 0  1 0.5 0  0.5 1 0  0 0.5 0  0.5 0.5 0  0 0.25 0  0.25 0 0  0.25 1 0  0 0.75 0  1 0.25 0  0.75 0 0  1 0.75 0  0.75 1 0  0.7083333333333333 0.2916666666666667 0  0.2916666666666666 0.7083333333333334 0  0.375 0.25 0  0.75 0.625 0  0.2569444444444444 0.4652777777777778 0  0.5366379310344828 0.7535919540229885 0  0.1875 0.1875 0  0.8125 0.8125 0  0.869047619047619 0.375 0  0.1450441919191919 0.6052714646464646 0  0.375 0.8690476190476191 0  0.5526960784313725 0.1825980392156862 0  0.8385416666666666 0.1614583333333334 0  0.1614583333333333 0.8385416666666667 0  0.6736111111111112 0.4652777777777778 0  0.1367521367521368 0.3477564102564102 0  0.6570970491253563 0.8648656830417855 0  0.5102479397556124 0.3386260301221938 0  0.3654513888888889 0.5737847222222222 0  0.6929750044954185 0.1362784921584263 0  0.388576102743835 0.411911725237599 0  0.6091269841269842 0.5942460317460317 0  0.875 0.6875 0  0.427278890279516 0.119889445139758 0  0.8544456845238095 0.5213913690476191 0  0.125 0 0  0 0.125 0  1 0.875 0  0.875 1 0  0.1280008648150532 0.4769292340226777 0  0.2695382451711197 0.3321750950221553 0  0.7031567235715964 0.7447810921428012 0  0.625 0 0  0.375 0 0  0.125 1 0  0.875 0 0  0 0.375 0  0 0.625 0  1 0.375 0  0.375 1 0  1 0.125 0  0 0.875 0  0.625 1 0  1 0.625 0  0.2979288363930608 0.1201429454643536 0  0.410919540229885 0.7484605911330049 0  0.5325041980395562 0.878905151526474 0  0.4831670727569156 0.6331060043826487 0  0.1735997378973042 0.7204747378973043 0  0.2534919507575758 0.5772372159090909 0  0.2633928571428572 0.8876488095238095 0  0.8199404761904761 0.2730654761904762 0  0.75830270586982 0.3919383189517417 0  0.5750282248382511 0.4237522353023667 0  0.6008360210023379 0.2794828358598495 0  0.08163442644334186 0.6821295860397322 0  0.08333333333333333 0.1875 0  0.2028380815996574 0.08844602719988583 0  0.2766521142611967 0.2325436572164097 0  0.90625 0.78125 0  0.890625 0.890625 0  0.7545696325008384 0.8973565441669461 0  0.5625 0.08086590340834317 0  0.09077380952380953 0.09077380952380952 0  0.4610923478694773 0.209034015149656 0  0.7542527598351648 0.5248380520595106 0  0.6459235536037465 0.3619913988405765 0  0.7560381768882634 0.20506142233852 0  0.07073252688172042 0.8125 0  0.0924753097241701 0.9078102849914793 0  0.9292674731182795 0.1875 0  0.9075246902758297 0.09218971500852073 0  0.8125 0.07073252688172045 0  0.2400955776842301 0.7869705776842302 0  0.9121050213379069 0.2781978201831695 0  0.7916878157143976 0.7239689078571988 0  0.9345238095238094 0.4375 0  0.4375 0.9345238095238095 0  0.3725616989755203 0.6651895248862173 0  0.06536271996350887 0.5625 0  0.9348362560379583 0.5625 0  0.456646798987055 0.8277247094351965 0  0.1875 0.9355758238725954 0  0.6169761231634859 0.6939779188977889 0  0.6226854751147515 0.7827911461419014 0  0.3305695598137626 0.7901697871282585 0  0.5865305325818898 0.5101085479043448 0  0.6622701297028378 0.2177663989757395 0  0.1354166666666667 0.2591702279202279 0  0 0.3125 0  0.2094429575680048 0.3936361846162499 0  0.836666296419157 0.607917407161686 0  0.6875 1 0  0.214261555450504 0.6492551722020035 0  0 0.4375 0  0.07731537126068377 0.40625 0  0.3427725432967068 0.4879566233699599 0  0.3550792513951871 0.3331953632609953 0  0.4462473953896857 0.2887834789342508 0  0.4747801464819794 0.417386052030127 0  0.8229836475148948 0.4443292349237342 0  0.7322605135514757 0.8199240278289671 0  0.6756431877205955 0.5468989748126787 0  0.1968419507215863 0.5194573482612496 0  0.3285590277777778 0.9345238095238095 0  0.8125 1 0  0.4198917601920009 0.5134893045331258 0  0.5232405503206691 0.2595791787880157 0  1 0.9375 0  0.1987510870015086 0.3025185951894431 0  0.5625 1 0  0.6005390654136388 0.9228110509230952 0  0.6411254848194414 0.07704872765442942 0  0.3357233162523242 0.1855113224530532 0  0.6730653396610877 0.6393887462324165 0  0.310966987234063 0.6240019765311626 0  0.7368737836204349 0.07457755202327881 0  0.6192316414418171 0.1485238406378594 0  0.5432429670607106 0.678552703844006 0  0.4754371679695679 0.7103946803120881 0  0.07501324890749672 0.3043839897335739 0  0.5358146975860403 0.5688321463205916 0  0.3115271739500156 0.3982137365971444 0  0.3625191397122174 0.0767854603650549 0  0.5024029442563831 0.1264128223758444 0  0.4375 0 0  0.4699946908887376 0.06379961173775725 0  0.9375 0.71875 0  0.9272105898044465 0.635671179608893 0  0.9375 1 0  0.6690971819568612 0.9331530898202766 0  0.1073454944778885 0.7499206387638554 0  0.8699082999280406 0.2232403652524313 0  0.5773118091863964 0.3548027349159383 0  0.1354166666666667 0.1428571428571428 0  0.3125 0 0  0.8241684193077341 0.9257452995055244 0  0.4352314948354036 0.3586940847489378 0  0.4351301473778832 0.5819726043539077 0  0.8073232928518163 0.3419398170341962 0  0.7775949246947366 0.1298519409204575 0  0.6875 0 0  0.7413513991851041 0.457933324954483 0  0.939453125 0.841796875 0  0.5630355154606987 0.8171875156478349 0  0.9345238095238095 0.3461466592368577 0  0.9375 0 0  1 0.0625 0  0.0625 1 0  0 0.9375 0  0.06552178593177167 0.4969053669623468 0  0.1424866619031703 0.4130277709291224 0  0.1275287182444726 0.5422946908002588 0  0.2637686595586339 0.06413888464529549 0  0.2524263535491086 0.1697437503243817 0  0.7367218397988525 0.6888573970660841 0  0.0625 0 0  0 0.0625 0  0.8463594539285995 0.7578283617857982 0  0.3128751192101563 0.2851997374369947 0  0.4015281788351144 0.1806421385113692 0  0.1910251795116588 0.4553332197174453 0  0.287797471442006 0.5222621440543902 0  0.3962628745986055 0.8097380085535307 0  0.3505895299554843 0.7304878890838692 0  0.5019151500495276 0.9356042615328103 0  0.9374389419410134 0.4999931039076005 0  0.3125 1 0  0.1875 1 0  1 0.5625 0  0.4375 1 0  1 0.3125 0  1 0.4375 0  0.8125 0 0  1 0.1875 0  0.5625 0 0  0.1875 0 0  0 0.1875 0  0 0.5625 0  0 0.6875 0  0 0.8125 0  1 0.6875 0  1 0.8125 0  0.8021696218581627 0.6612893947866073 0  0.06154922295426143 0.6239401126946708 0  0.9359375 0.9359375 0  0.4666158024849896 0.7691515918155014 0  0.2318201265217025 0.7064974250277525 0  0.1565954253579966 0.6635489312486841 0  0.1598132503680848 0.7787147500325552 0  0.3146529991605639 0.8510876378205265 0  0.1461873209418733 0.05982804528877814 0  0.06109554988524315 0.2446551776247686 0  0.8054950308560754 0.5564226538848541 0  0.470541749491976 0.8853316336952531 0  0.6948472567465137 0.4042308563372457 0  0.8802828472348889 0.4658893256343853 0  0.6788075634946739 0.7974194205806069 0  0.2155048659603867 0.2428201584940968 0  0.8131223143423806 0.2132171049028394 0  0.4330798005432235 0.6671274900735726 0  0.6015279126162613 0.2187368078743274 0  0.8061636571464289 0.8703766630361714 0  0.7008230445061776 0.3478568388444072 0  0.8638466246958771 0.3147095987735538 0  0.204801534004265 0.8789209409594009 0  0.2449006736431132 0.9424182882803838 0  0.7611268409371427 0.2643056884799992 0  0.7552800864046191 0.7678006649959446 0  0.5983639638906616 0.864113435029236 0  0.1956559506814437 0.577281203577426 0  0.3527670268164207 0.1320469097565204 0  0.7530364577483248 0.3262386077083089 0  0.4535919187979363 0.4690107087451527 0  0.8824869791666666 0.8336588541666666 0  0.8814453125 0.9451171875 0  0.5582987942628019 0.622421666543858 0  0.6817532446064828 0.6939001801354731 0  0.3830295138888889 0.9450968952922078 0  0.4140603937012541 0.05211333372716105 0  0.5535864501303013 0.3060591985391672 0  0.6560130086346878 0.2729726562211558 0  0.890203140221684 0.5948314305427268 0  0.7043857725999024 0.593980890020804 0  0.5105843922695152 0.8016828014338627 0  0.05365910753708378 0.7315110031682004 0  0.616904573672261 0.4621186633436136 0  0.5338511646455415 0.387875898899613 0  0.5231769258947843 0.4477682463140762 0  0.650302973237622 0.7370722302085519 0  0.3927483139621257 0.4662414504529014 0  0.8034595960585199 0.4972538342758211 0  0.7738337841682438 0.9496376207663251 0  0.7193737507158268 0.954685447650112 0  0.482525916480686 0.5528257169991676 0  0.2533501157346781 0.2809495420003238 0  0.3118487924482243 0.5702930126570319 0  0.6257598847669529 0.4104163315430518 0  0.1354166666666667 0.1955605158730158 0  0.04166666666666666 0.15625 0  0.3956448985530264 0.6174149462065157 0  0.8102897701818546 0.3938784238208349 0  0.2641154190013625 0.8344469561943118 0  0.642852220770013 0.5068794586563659 0  0.05271458179508221 0.355846947336007 0  0.7021551360070266 0.8921457280225779 0  0.5692125776683765 0.1328512638850284 0  0.5206162811937602 0.04865158770992991 0  0.6001838442201555 0.04540556991297563 0  0.2597716608242787 0.4118346398477178 0  0.4040584599473195 0.3179589136784675 0  0.1480337679295207 0.8941560631483065 0  0.1344356707112281 0.9466251177415842 0  0.7114696411829317 0.4983917389078826 0  0.7585704698442475 0.5751926345944629 0  0.2189131956390871 0.04022068508159698 0  0.2476935455192043 0.1123642267635843 0  0.185995005654517 0.1365524537205238 0  0.6223414373308711 0.643380839165121 0  0.5732602596637543 0.7190051747306219 0  0.268358222364537 0.6586246524467934 0  0.3265879848129173 0.2369791782191225 0  0.1267095595787346 0.7034787238999181 0  0.1115202922226038 0.6421997933884982 0  0.3128688392940203 0.07260997451790079 0  0.550724900485678 0.9253360991633187 0  0.7142608810459105 0.2384904702214873 0  0.7045869185243887 0.1871826897887429 0  0.890625 0.734375 0  0.953125 0.765625 0  0.2111812642821677 0.8286209446459138 0  0.9590293078204457 0.09375 0  0.953431269039847 0.1435719386408004 0  0.04097069217955424 0.90625 0  0.04656873096015299 0.8564280613591996 0  0.1078743037981226 0.8541621766048062 0  0.8921256962018773 0.1458378233951939 0  0.8521576979194619 0.1084496634207678 0  0.8655663982740958 0.05464346096571447 0  0.04005659640905543 0.09375 0  0.1001448316533417 0.04246776244228261 
[...]
<PointData  Vectors="f_8604-0"> 
<DataArray  type="Float64"  Name="f_8604-0"  NumberOfComponents="3" format="ascii">7.0649517263190569e-03 3.2128522485924747e-03 0.0000000000000000e+00  4.5906434920090465e-05 -3.1122147790732437e-04 0.0000000000000000e+00  2.0589762497049083e-03 1.9455880778700358e-04 0.0000000000000000e+00  4.0946043430759018e-03 3.2643208387309226e-04 0.0000000000000000e+00  1.9455644711840500e-03 -4.9874277506360386e-03 0.0000000000000000e+00  -4.7813352012756238e-04 1.6615332053011348e-04 0.0000000000000000e+00  2.4739091437472508e-04 -2.1642568109069083e-04 0.0000000000000000e+00  3.0237668612138322e-03 -1.2962942732593339e-03 0.0000000000000000e+00  -9.5188042889466230e-04 -5.1822646432556877e-04 0.0000000000000000e+00  7.1578354514329583e-03 3.5772994555082708e-04 0.0000000000000000e+00  2.5140577723343936e-03 -2.7937605455244448e-03 0.0000000000000000e+00  -8.0481856194693376e-04 1.6441681183206999e-03 0.0000000000000000e+00  6.4926179433617785e-03 -1.1612465634357767e-03 0.0000000000000000e+00  -1.5355645275011596e-03 4.8540977771669206e-04 0.0000000000000000e+00  -4.2551606982293793e-04 1.5646369402883419e-03 0.0000000000000000e+00  1.1041917590570206e-03 -1.6114161185176728e-04 0.0000000000000000e+00  8.7249504852325251e-04 -4.0541886127716325e-04 0.0000000000000000e+00  3.2243129320624257e-04 -1.0441970572172660e-03 0.0000000000000000e+00  8.7296771010812355e-04 -4.8310910664034099e-04 0.0000000000000000e+00  -1.7574226114078161e-03 1.8451219204219046e-03 0.0000000000000000e+00  6.9114652917004850e-04 5.1861642013609937e-04 0.0000000000000000e+00  1.7639938713524890e-03 -2.0833966109610976e-03 0.0000000000000000e+00  6.2669608929386651e-04 6.1758098213613095e-04 0.0000000000000000e+00  -1.8466471012954129e-03 -3.1316034817177874e-03 0.0000000000000000e+00  1.2309736345476988e-04 -1.6582046896996964e-04 0.0000000000000000e+00  1.3203639589696914e-03 1.0756547967629500e-04 0.0000000000000000e+00  -1.5889225883458137e-03 1.1448826878139723e-03 0.0000000000000000e+00  2.3034666090168501e-03 8.9583579264314832e-05 0.0000000000000000e+00  2.8135758132275027e-03 7.5043231166548225e-04 0.0000000000000000e+00  -1.2470316821691133e-03 2.8052365072172398e-04 0.0000000000000000e+00  -1.3063841244844551e-03 -2.4146589767552254e-04 0.0000000000000000e+00  -7.1836084721626191e-04 -1.6646703578843945e-03 0.0000000000000000e+00  -1.6952973447410193e-03 5.5875350517851983e-04 0.0000000000000000e+00  2.3095416166853670e-04 -1.2515034246908606e-04 0.0000000000000000e+00  -1.7057988454591748e-03 -1.5687499575118722e-03 0.0000000000000000e+00  4.7783743394926564e-03 3.1872459623634680e-05 0.0000000000000000e+00  -5.2658474695703450e-03 -1.5892792928223385e-04 0.0000000000000000e+00  1.2099061187128936e-03 2.2620384964979865e-03 0.0000000000000000e+00  -5.8438796878348877e-04 1.2743318891488644e-03 0.0000000000000000e+00  7.4601744237462903e-05 1.5540325206927661e-05 0.0000000000000000e+00  1.0255970753101831e-03 -2.4632846758724670e-03 0.0000000000000000e+00  7.4969300144007533e-04 1.3788771462054475e-05 0.0000000000000000e+00  2.3297835877633447e-03 -1.7849299178725690e-03 0.0000000000000000e+00  5.4909142550063576e-03 -2.6130103121851742e-03 0.0000000000000000e+00  1.8749406035209401e-03 -2.8846738810798031e-04 0.0000000000000000e+00  3.8072803478516281e-04 -1.5032713698033366e-03 0.0000000000000000e+00  1.3144878304177539e-03 -6.5814987954772330e-04 0.0000000000000000e+00  5.7766559708954503e-03 2.9909013071992031e-04 0.0000000000000000e+00  -1.0079963146695169e-04 2.2253336887195692e-04 0.0000000000000000e+00  3.9348778480816230e-03 -9.7811291819323385e-04 0.0000000000000000e+00  1.9994253544815240e-03 -2.0265871340295171e-04 0.0000000000000000e+00  -1.1085495744674325e-03 7.7742286755560597e-04 0.0000000000000000e+00  1.6999280568181312e-03 -5.9625937763574572e-04 0.0000000000000000e+00  7.0639671484557364e-03 -4.6151635424809042e-04 0.0000000000000000e+00  6.8402541305960674e-03 7.0569514969546100e-05 0.0000000000000000e+00  -1.3211698859117173e-03 2.5707726492424745e-04 0.0000000000000000e+00  -4.5985545883576258e-04 -1.1181426889395198e-04 0.0000000000000000e+00  -1.0552851801821997e-03 8.2511383212774078e-04 0.0000000000000000e+00  2.5164611415438038e-03 -1.0325356168077639e-03 0.0000000000000000e+00  3.9455397996022469e-04 -6.0804864026003924e-05 0.0000000000000000e+00  2.2764670958724548e-04 -8.5821246628466731e-05 0.0000000000000000e+00  -7.7305179019212438e-04 -1.0950893119226284e-03 0.0000000000000000e+00  -1.3069326472157060e-03 1.1276350155614674e-03 0.0000000000000000e+00  -3.4163878008481381e-05 1.9627486656803057e-04 0.0000000000000000e+00  -7.3838511928209336e-04 8.6442582433099283e-04 0.0000000000000000e+00  5.9924797457622161e-04 -1.9540315003901852e-03 0.0000000000000000e+00  1.4955174586563222e-03 7.3493567721791384e-04 0.0000000000000000e+00  -1.0485526088919572e-04 2.4789051386399287e-04 0.0000000000000000e+00  -3.1053169325457662e-03 1.1682624638448779e-04 0.0000000000000000e+00  -1.4129292052138152e-03 -1.0909690743235690e-03 0.0000000000000000e+00  -2.8889686322115284e-04 -9.8152226861757444e-04 0.0000000000000000e+00  5.1485569410558785e-03 6.6604630470481433e-04 0.0000000000000000e+00  -9.9034585873415725e-04 7.9005565620424774e-04 0.0000000000000000e+00  -3.7359948265947018e-03 -1.4265295644008734e-03 0.0000000000000000e+00  -5.6503863223296433e-03 1.5193814040091185e-03 0.0000000000000000e+00  3.7730294663370348e-03 -1.4246420158535505e-03 0.0000000000000000e+00  4.6000301706436485e-04 -4.0174097408957716e-04 0.0000000000000000e+00  2.1199789615864589e-04 3.9276719422746002e-06 0.0000000000000000e+00  2.3194326714737526e-04 -4.4908103393938482e-04 0.0000000000000000e+00  -3.3446993196192781e-03 -1.2690263895144419e-04 0.0000000000000000e+00  3.7613402003697054e-03 -2.1677488388026083e-03 0.0000000000000000e+00  -4.1750995242002646e-03 7.2131401332150831e-04 0.0000000000000000e+00  5.2101551613889269e-04 -7.1128299251889979e-05 0.0000000000000000e+00  -4.8994739084110982e-04 -3.2938966372301343e-05 0.0000000000000000e+00  1.2060853508799906e-03 1.0637567423185759e-03 0.0000000000000000e+00  2.5309039502948833e-03 5.9137390244351788e-04 0.0000000000000000e+00  1.6428531619417392e-03 3.4717887929256434e-04 0.0000000000000000e+00  2.3823143209855202e-03 -8.2908579594692905e-04 0.0000000000000000e+00  -2.0603586004835374e-03 6.3751784838726462e-04 0.0000000000000000e+00  1.2703707117929981e-03 -1.5435410004759425e-03 0.0000000000000000e+00  -9.8482631046203591e-04 8.0726038809784441e-04 0.0000000000000000e+00  1.0094528700266407e-03 6.2073730082539671e-04 0.0000000000000000e+00  3.2917095696925877e-04 -1.5221481070817953e-05 0.0000000000000000e+00  1.0195957274915723e-03 -2.7417252755319914e-04 0.0000000000000000e+00  1.0970328086214731e-03 9.2393045225598123e-05 0.0000000000000000e+00  -2.4029707279081877e-03 -9.4311560013847956e-05 0.0000000000000000e+00  -1.7910892574293266e-03 3.1670585805859434e-03 0.0000000000000000e+00  5.8821829477610180e-04 3.2668235907988571e-05 0.0000000000000000e+00  1.2656536811796225e-03 -1.2356425515654553e-03 0.0000000000000000e+00  -1.0009825883746650e-03 5.9289683258082707e-04 0.0000000000000000e+00  -3.4791707473015067e-05 -6.2909772089059473e-04 0.0000000000000000e+00  2.9646493561459749e-04 2.7363320527497851e-04 0.0000000000000000e+00  1.5993336400249147e-04 -3.8151008900862930e-03 0.0000000000000000e+00  1.4943662081565883e-03 -7.8827879450410975e-04 0.0000000000000000e+00  -1.4241816918884617e-03 2.6268114629975944e-03 0.0000000000000000e+00  -1.8742910858480834e-03 -1.5184395270894145e-03 0.0000000000000000e+00  9.6918826121229914e-04 -1.6168368150669943e-03 0.0000000000000000e+00  -1.3948723841540893e-04 -1.3206122550314372e-03 0.0000000000000000e+00  -3.2411555118133737e-04 2.5411816120257300e-04 0.0000000000000000e+00  3.5679953432548998e-04 -2.6838591157356506e-04 0.0000000000000000e+00  -2.2378578490381797e-04 1.2284238547357208e-03 0.0000000000000000e+00  4.3224540566458337e-03 -1.9334893020066576e-03 0.0000000000000000e+00  -1.3925710876309396e-03 2.1969054513656114e-04 0.0000000000000000e+00  -3.4513304353125549e-03 -1.0845681158525751e-03 0.0000000000000000e+00  -1.5482700350118901e-03 -1.7348997599384889e-03 0.0000000000000000e+00  1.9556633601065005e-03 1.4803448053684306e-03 0.0000000000000000e+00  9.8158916762041814e-05 -2.6043978714841319e-03 0.0000000000000000e+00  -1.0494082294229370e-03 6.1957801574199947e-04 0.0000000000000000e+00  1.9283811220823606e-04 1.7235892773261839e-05 0.0000000000000000e+00  -1.9203312685422638e-04 -9.3634751345520384e-04 0.0000000000000000e+00  -4.1112441899267757e-03 -6.2577331878759749e-04 0.0000000000000000e+00  -6.5574625232828491e-04 5.3600787449479431e-05 0.0000000000000000e+00  1.6844419942458582e-03 -1.0128255389444821e-03 0.0000000000000000e+00  2.7469152322176730e-03 -7.3556305631418632e-03 0.0000000000000000e+00  -2.2148221702717246e-03 1.5001322610442179e-03 0.0000000000000000e+00  2.4875694667108690e-03 6.1689875774684948e-05 0.0000000000000000e+00  1.8528202916141137e-03 -9.4033865774099468e-04 0.0000000000000000e+00  1.1728957262837660e-04 3.4361384164863446e-05 0.0000000000000000e+00  4.2086824319022362e-04 -5.2102141359252615e-05 0.0000000000000000e+00  2.0963494635940910e-03 -2.1441943593828918e-03 0.0000000000000000e+00  4.6299593689909171e-03 7.3316803095718384e-04 0.0000000000000000e+00  1.0838661835185274e-03 -1.2770792414401174e-04 0.0000000000000000e+00  -3.1095816677385014e-03 4.6462912937819917e-04 0.0000000000000000e+00  3.8913778176749097e-03 -2.8238065358967624e-04 0.0000000000000000e+00  2.5097418669015070e-03 -1.9329610704193539e-03 0.0000000000000000e+00  1.3511829000543854e-03 -7.3124064345423030e-04 0.0000000000000000e+00  1.7099282203921896e-03 -8.3850936388873553e-04 0.0000000000000000e+00  -2.1217716287746072e-03 -1.5068811409048134e-04 0.0000000000000000e+00  1.5086860812537828e-03 -2.6334189807080620e-04 0.0000000000000000e+00  1.3901626898714071e-03 -2.0924031142854731e-03 0.0000000000000000e+00  1.7163827005046940e-04 3.1030404412009452e-03 0.0000000000000000e+00  -1.7427879294099904e-03 -1.0672418067317758e-03 0.0000000000000000e+00  1.8663301638178842e-03 -5.7800706383874913e-04 0.0000000000000000e+00  -5.0755904000089939e-04 3.4074942681139710e-04 0.0000000000000000e+00  5.4940959413228227e-04 -5.6493650336106774e-05 0.0000000000000000e+00  1.3244601655110216e-04 -1.0572571815915994e-05 0.0000000000000000e+00  1.2691770012321726e-03 3.2818141003488114e-04 0.0000000000000000e+00  4.7151614460948482e-05 8.7021027421069409e-05 0.0000000000000000e+00  -3.0493171209097724e-03 8.8386636227319687e-04 0.0000000000000000e+00  -7.2427843116856360e-04 3.6308390749166557e-04 0.0000000000000000e+00  4.5411761358110855e-03 -7.3529223612625182e-04 0.0000000000000000e+00  1.1759561597262221e-04 -1.8136388298111957e-04 0.0000000000000000e+00  3.4400612729701711e-03 -1.3550161799045981e-03 0.0000000000000000e+00  -1.4699159217846592e-04 3.2332178992134297e-04 0.0000000000000000e+00  3.0405528588217292e-03 -1.2133887967516542e-03 0.0000000000000000e+00  -2.0987659444570648e-04 -3.0634929759395060e-04 0.0000000000000000e+00  2.2773258191761442e-03 2.3462547908068042e-04 0.0000000000000000e+00  2.2740443236043484e-03 -3.8225177388829003e-03 0.0000000000000000e+00  2.1664851411280542e-03 -2.1919717217740587e-04 0.0000000000000000e+00  -1.5657991130794469e-03 4.0367938224503174e-04 0.0000000000000000e+00  -1.1710181344860844e-03 -9.2481800733917700e-04 0.0000000000000000e+00  -3.1852843802293205e-04 3.6376863958141744e-04 0.0000000000000000e+00  -1.2193281124157779e-03 1.7345234167089635e-03 0.0000000000000000e+00  1.7930783681456384e-03 -1.0315423073616386e-03 0.0000000000000000e+00  -2.8158233800510434e-03 6.3510185808435910e-04 0.0000000000000000e+00  -1.0865848104077368e-03 1.0441168594582610e-03 0.0000000000000000e+00  4.1939500328591218e-03 -9.4507974684114311e-04 0.0000000000000000e+00  -4.0612171716287388e-03 9.1097373532948701e-04 0.0000000000000000e+00  6.1290993101911434e-03 -1.1051999113647914e-03 0.0000000000000000e+00  8.0387967783593925e-04 -7.9344365568890661e-04 0.0000000000000000e+00  -2.1002994721895430e-03 -7.0766046785424377e-04 0.0000000000000000e+00  5.4003830410614953e-03 -1.5021573611797645e-05 0.0000000000000000e+00  2.9790721735512764e-04 -4.6063365670857631e-05 0.0000000000000000e+00  2.3730582340416389e-03 -2.1443979702794472e-03 0.0000000000000000e+00  3.9807218182191378e-03 -1.4949807679906718e-03 0.0000000000000000e+00  1.9273920004493788e-04 -4.2028246483294209e-05 0.0000000000000000e+00  -1.4957063330113256e-03 -2.5089039943805005e-04 0.0000000000000000e+00  2.6465709580186961e-03 7.6438725368492295e-04 0.0000000000000000e+00  -2.7481927009316703e-03 2.5763200368162801e-03 0.0000000000000000e+00  1.3097264766711633e-03 1.1963323741079651e-03 0.0000000000000000e+00  -6.3355010393213393e-04 1.3266482052577818e-04 0.0000000000000000e+00  2.1029160598525377e-03 7.9123002857052949e-04 0.0000000000000000e+00  -3.9190809655827050e-04 4.9875000668792632e-04 0.0000000000000000e+00  2.6418396554106873e-04 -5.3778243852379345e-04 0.0000000000000000e+00  4.5456115574423871e-05 1.7783342063196830e-03 0.0000000000000000e+00  -1.4766522589165451e-03 4.6229690955144876e-04 0.0000000000000000e+00  6.1159561699787026e-05 7.9946465925566205e-05 0.0000000000000000e+00  -2.9836288184939043e-04 -3.2297792017076671e-05 0.0000000000000000e+00  -1.3522462280379905e-03 4.6321454148495864e-04 0.0000000000000000e+00  -8.3842248673404350e-04 4.0602474726354651e-04 0.0000000000000000e+00  1.8228477547747410e-03 -7.9357084765091729e-04 0.0000000000000000e+00  -2.4073000228874613e-03 5.6380581924422022e-04 0.0000000000000000e+00  2.1041502171548388e-03 1.5248281960656578e-04 0.0000000000000000e+00  3.7758026848319533e-03 -7.5878663639604308e-04 0.0000000000000000e+00  2.5397924918220175e-03 -1.0036761572509044e-03 0.0000000000000000e+00  8.9346877577290637e-03 -1.0914008298219279e-03 0.0000000000000000e+00  7.7706747374359925e-04 -6.8641357929106203e-04 0.0000000000000000e+00  5.0473976697773129e-03 -7.5970917664132083e-04 0.0000000000000000e+00  4.4969529719509656e-04 -1.9734755074959207e-04 0.0000000000000000e+00  2.2898317655012674e-03 -5.2980833920275062e-04 0.0000000000000000e+00  9.5590694188789674e-05 -2.4758437035985945e-04 0.0000000000000000e+00  -1.0137649630728734e-04 1.0842892377517840e-03 0.0000000000000000e+00  -1.0465024265240521e-03 -9.6167520568786634e-05 0.0000000000000000e+00  1.1766473484396847e-03 -2.6572534208776043e-04 0.0000000000000000e+00  4.1016183028549480e-04 -5.4623478272813138e-04 0.0000000000000000e+00  8.5982661764307335e-04 9.0060284272259659e-04 0.0000000000000000e+00  4.5028624637674375e-03 -2.3803221564194454e-03 0.0000000000000000e+00  9.4354167319897616e-04 -1.8581032562234407e-03 0.0000000000000000e+00  2.0132887307092243e-03 -2.3553869606549320e-03 0.0000000000000000e+00  -3.2203240780012622e-03 5.7602579014160967e-03 0.0000000000000000e+00  2.9360841176901071e-04 8.8568255570896338e-07 0.0000000000000000e+00  3.4123061352449129e-04 -1.4670820873639653e-04 0.0000000000000000e+00  -2.4885608688383415e-03 3.3818612418281095e-03 0.0000000000000000e+00  1.1142069836190163e-03 7.3213347924913738e-05 0.0000000000000000e+00  1.8717009920126188e-04 1.9971006264626906e-04 0.0000000000000000e+00  5.3567425175180807e-03 -4.9458122900636315e-04 0.0000000000000000e+00  8.5780429308327097e-04 -2.9224773528663808e-03 0.0000000000000000e+00  1.1974309856080715e-03 -1.1174357233561096e-03 0.0000000000000000e+00  -9.9410718392549391e-04 -3.3197052292062532e-04 0.0000000000000000e+00  -2.0497383006610434e-04 -4.1816178648983377e-05 0.0000000000000000e+00  2.8422433501670828e-03 5.5542610027920782e-04 0.0000000000000000e+00  2.9114637760955825e-04 -9.4225330940343692e-05 0.0000000000000000e+00  -4.9065033547899769e-04 -4.4385907146260613e-04 0.0000000000000000e+00  1.0171091681097102e-03 -7.0773396146492275e-04 0.0000000000000000e+00  -1.5109146037437802e-03 1.5238585762839885e-04 0.0000000000000000e+00  1.7798514447086108e-04 8.4388568255408677e-05 0.0000000000000000e+00  3.8833334571041443e-04 5.1418766392573510e-06 0.0000000000000000e+00  3.9810980532588511e-03 -2.0478206104315028e-03 0.0000000000000000e+00  -1.0862949985738083e-03 -2.1285167227081229e-03 0.0000000000000000e+00  -2.7191749258687063e-03 1.5706174950865578e-06 0.0000000000000000e+00  8.5437788895085739e-04 -1.1393491760266924e-03 0.0000000000000000e+00  -8.0401350463229538e-04 8.0753919220081811e-04 0.0000000000000000e+00  5.8359094566097849e-04 -3.3910848325085071e-04 0.0000000000000000e+00  -1.0344512955132485e-03 -3.1841324803114936e-04 0.0000000000000000e+00  -6.2649851700480373e-04 9.9819885955568282e-05 0.0000000000000000e+00  1.0141066447683770e-03 -3.2905171871669582e-04 0.0000000000000000e+00  1.4972758569742864e-03 -1.0622145072467159e-03 0.0000000000000000e+00  2.5424744315816683e-03 -9.6613382944610890e-04 0.0000000000000000e+00  9.6876238879359733e-04 -1.8842699899588374e-04 0.0000000000000000e+00  1.3163925335425960e-04 -7.4979384588049058e-05 0.0000000000000000e+00  1.8844067366694832e-03 -5.5071503822979337e-05 0.0000000000000000e+00  3.1059883856498192e-04 -2.1593124740930023e-05 0.0000000000000000e+00  1.5564735125052573e-03 7.0369341536552325e-04 0.0000000000000000e+00  1.0223001887184322e-03 -7.2579298035163609e-04 0.0000000000000000e+00  -1.8168858213859539e-03 1.6415196079185598e-03 0.0000000000000000e+00  -3.3401244022670242e-03 6.2047816097911268e-04 0.0000000000000000e+00  -3.4462678861464527e-04 1.0536087122653215e-03 0.0000000000000000e+00  -2.2456071505276912e-03 -4.6116474383283242e-04 0.0000000000000000e+00  -2.4572062859286705e-04 -3.8484167583159557e-04 0.0000000000000000e+00  8.5123978306224954e-04 -5.1580358791483369e-04 0.0000000000000000e+00  5.6054064514418969e-04 -2.4005275218792714e-04 0.0000000000000000e+00  -1.9375736680433834e-03 -7.7042387496212717e-04 0.0000000000000000e+00  -9.6569452568143134e-04 1.1333814305399246e-03 0.0000000000000000e+00  -1.2888380505061683e-03 1.4843471725439206e-03 0.0000000000000000e+00  6.1266265971688825e-04 -5.5655424853271926e-04 0.0000000000000000e+00  -3.3672693360624639e-03 7.0846706826952453e-04 0.0000000000000000e+00  -3.3575920625482166e-03 2.0203361453782851e-03 0.0000000000000000e+00  -1.5266809837136443e-03 1.8430448195534156e-03 0.0000000000000000e+00  8.3674793358382927e-04 -3.9413372291615344e-04 0.0000000000000000e+00  1.0039126227912856e-03 1.8118021473018898e-03 0.0000000000000000e+00  -2.9216158932947062e-04 1.2991670618646349e-03 0.0000000000000000e+00  4.1606213571247930e-03 -1.5889865591042903e-03 0.0000000000000000e+00  3.4991077126761132e-05 -5.4388811813433041e-05 0.0000000000000000e+00  5.0980803177074830e-04 -1.6079881640945308e-03 0.0000000000000000e+00  -3.3880679006307924e-03 8.8001044494015782e-04 0.0000000000000000e+00  -2.5777292705071223e-03 1.2221794730114428e-03 0.0000000000000000e+00  -3.7485932558530798e-03 1.5179972611667233e-03 0.0000000000000000e+00  -1.0116299548583456e-03 3.3284910491300642e-04 0.0000000000000000e+00  1.4288302509517733e-03 6.9394634197532975e-04 0.0000000000000000e+00  -4.5200954693978780e-05 6.8625150181505384e-04 0.0000000000000000e+00  -9.2465827549536423e-04 2.7677804971828595e-04 0.0000000000000000e+00  -3.6988873061771451e-04 2.5382271504652206e-04 0.0000000000000000e+00  -2.7160354310592257e-04 -1.0543769394971507e-03 0.0000000000000000e+00  -9.6411990179368209e-04 -2.6279730052950644e-04 0.0000000000000000e+00  1.4524171464902597e-03 2.3772208112979023e-03 0.0000000000000000e+00  9.6117576655223563e-04 5.9848407160029745e-05 0.0000000000000000e+00  -1.3099363306617851e-04 -5.5771959676556419e-04 0.0000000000000000e+00  -3.4607628174566419e-04 9.7744207400093930e-04 0.0000000000000000e+00  3.1743109870190855e-03 -1.2488760529424723e-03 0.0000000000000000e+00  -1.0438278850631458e-03 -9.6729111143043466e-04 0.0000000000000000e+00  -1.618337963526