<?xml version="1.0"?>
<VTKFile type="UnstructuredGrid"  version="0.1"  >
<UnstructuredGrid>
<Piece  NumberOfPoints="1385" NumberOfCells="2640">
<Points>
<DataArray  type="Float64"  NumberOfComponents="3"  format="ascii">0 0 0  1 0 0  1 1 0  0 1 0  0.5 0 0  1 0.5 0  0.5 1 0  0 0.5 0  0.5 0.5 0  0 0.25 0  0.25 0 0  0.25 1 0  0 0.75 0  1 0.25 0  0.75 0 0  1 0.75 0  0.75 1 0  0.7083333333333333 0.2916666666666667 0  0.2916666666666666 0.7083333333333334 0  0.375 0.25 0  0.75 0.625 0  0.2569444444444444 0.4652777777777778 0  0.5366379310344828 0.7535919540229885 0  0.1875 0.1875 0  0.8125 0.8125 0  0.869047619047619 0.375 0  0.1450441919191919 0.6052714646464646 0  0.375 0.8690476190476191 0  0.5526960784313725 0.1825980392156862 0  0.8385416666666666 0.1614583333333334 0  0.1614583333333333 0.8385416666666667 0  0.6736111111111112 0.4652777777777778 0  0.1367521367521368 0.3477564102564102 0  0.6570970491253563 0.8648656830417855 0  0.5102479397556124 0.3386260301221938 0  0.3654513888888889 0.5737847222222222 0  0.6929750044954185 0.1362784921584263 0  0.388576102743835 0.411911725237599 0  0.6091269841269842 0.5942460317460317 0  0.875 0.6875 0  0.427278890279516 0.119889445139758 0  0.8544456845238095 0.5213913690476191 0  0.125 0 0  0 0.125 0  1 0.875 0  0.875 1 0  0.1280008648150532 0.4769292340226777 0  0.2695382451711197 0.3321750950221553 0  0.7031567235715964 0.7447810921428012 0  0.625 0 0  0.375 0 0  0.125 1 0  0.875 0 0  0 0.375 0  0 0.625 0  1 0.375 0  0.375 1 0  1 0.125 0  0 0.875 0  0.625 1 0  1 0.625 0  0.2979288363930608 0.1201429454643536 0  0.410919540229885 0.7484605911330049 0  0.5325041980395562 0.878905151526474 0  0.4831670727569156 0.6331060043826487 0  0.1735997378973042 0.7204747378973043 0  0.2534919507575758 0.5772372159090909 0  0.2633928571428572 0.8876488095238095 0  0.8199404761904761 0.2730654761904762 0  0.75830270586982 0.3919383189517417 0  0.5750282248382511 0.4237522353023667 0  0.6008360210023379 0.2794828358598495 0  0.08163442644334186 0.6821295860397322 0  0.08333333333333333 0.1875 0  0.2028380815996574 0.08844602719988583 0  0.2766521142611967 0.2325436572164097 0  0.90625 0.78125 0  0.890625 0.890625 0  0.7545696325008384 0.8973565441669461 0  0.5625 0.08086590340834317 0  0.09077380952380953 0.09077380952380952 0  0.4610923478694773 0.209034015149656 0  0.7542527598351648 0.5248380520595106 0  0.6459235536037465 0.3619913988405765 0  0.7560381768882634 0.20506142233852 0  0.07073252688172042 0.8125 0  0.0924753097241701 0.9078102849914793 0  0.9292674731182795 0.1875 0  0.9075246902758297 0.09218971500852073 0  0.8125 0.07073252688172045 0  0.2400955776842301 0.7869705776842302 0  0.9121050213379069 0.2781978201831695 0  0.7916878157143976 0.7239689078571988 0  0.9345238095238094 0.4375 0  0.4375 0.9345238095238095 0  0.3725616989755203 0.6651895248862173 0  0.06536271996350887 0.5625 0  0.9348362560379583 0.5625 0  0.456646798987055 0.8277247094351965 0  0.1875 0.9355758238725954 0  0.6169761231634859 0.6939779188977889 0  0.6226854751147515 0.7827911461419014 0  0.3305695598137626 0.7901697871282585 0  0.5865305325818898 0.5101085479043448 0  0.6622701297028378 0.2177663989757395 0  0.1354166666666667 0.2591702279202279 0  0 0.3125 0  0.2094429575680048 0.3936361846162499 0  0.836666296419157 0.607917407161686 0  0.6875 1 0  0.214261555450504 0.6492551722020035 0  0 0.4375 0  0.07731537126068377 0.40625 0  0.3427725432967068 0.4879566233699599 0  0.3550792513951871 0.3331953632609953 0  0.4462473953896857 0.2887834789342508 0  0.4747801464819794 0.417386052030127 0  0.8229836475148948 0.4443292349237342 0  0.7322605135514757 0.8199240278289671 0  0.6756431877205955 0.5468989748126787 0  0.1968419507215863 0.5194573482612496 0  0.3285590277777778 0.9345238095238095 0  0.8125 1 0  0.4198917601920009 0.5134893045331258 0  0.5232405503206691 0.2595791787880157 0  1 0.9375 0  0.1987510870015086 0.3025185951894431 0  0.5625 1 0  0.6005390654136388 0.9228110509230952 0  0.6411254848194414 0.07704872765442942 0  0.3357233162523242 0.1855113224530532 0  0.6730653396610877 0.6393887462324165 0  0.310966987234063 0.6240019765311626 0  0.7368737836204349 0.07457755202327881 0  0.6192316414418171 0.1485238406378594 0  0.5432429670607106 0.678552703844006 0  0.4754371679695679 0.7103946803120881 0  0.07501324890749672 0.3043839897335739 0  0.5358146975860403 0.5688321463205916 0  0.3115271739500156 0.3982137365971444 0  0.3625191397122174 0.0767854603650549 0  0.5024029442563831 0.1264128223758444 0  0.4375 0 0  0.4699946908887376 0.06379961173775725 0  0.9375 0.71875 0  0.9272105898044465 0.635671179608893 0  0.9375 1 0  0.6690971819568612 0.9331530898202766 0  0.1073454944778885 0.7499206387638554 0  0.8699082999280406 0.2232403652524313 0  0.5773118091863964 0.3548027349159383 0  0.1354166666666667 0.1428571428571428 0  0.3125 0 0  0.8241684193077341 0.9257452995055244 0  0.4352314948354036 0.3586940847489378 0  0.4351301473778832 0.5819726043539077 0  0.8073232928518163 0.3419398170341962 0  0.7775949246947366 0.1298519409204575 0  0.6875 0 0  0.7413513991851041 0.457933324954483 0  0.939453125 0.841796875 0  0.5630355154606987 0.8171875156478349 0  0.9345238095238095 0.3461466592368577 0  0.9375 0 0  1 0.0625 0  0.0625 1 0  0 0.9375 0  0.06552178593177167 0.4969053669623468 0  0.1424866619031703 0.4130277709291224 0  0.1275287182444726 0.5422946908002588 0  0.2637686595586339 0.06413888464529549 0  0.2524263535491086 0.1697437503243817 0  0.7367218397988525 0.6888573970660841 0  0.0625 0 0  0 0.0625 0  0.8463594539285995 0.7578283617857982 0  0.3128751192101563 0.2851997374369947 0  0.4015281788351144 0.1806421385113692 0  0.1910251795116588 0.4553332197174453 0  0.287797471442006 0.5222621440543902 0  0.3962628745986055 0.8097380085535307 0  0.3505895299554843 0.7304878890838692 0  0.5019151500495276 0.9356042615328103 0  0.9374389419410134 0.4999931039076005 0  0.3125 1 0  0.1875 1 0  1 0.5625 0  0.4375 1 0  1 0.3125 0  1 0.4375 0  0.8125 0 0  1 0.1875 0  0.5625 0 0  0.1875 0 0  0 0.1875 0  0 0.5625 0  0 0.6875 0  0 0.8125 0  1 0.6875 0  1 0.8125 0  0.8021696218581627 0.6612893947866073 0  0.06154922295426143 0.6239401126946708 0  0.9359375 0.9359375 0  0.4666158024849896 0.7691515918155014 0  0.2318201265217025 0.7064974250277525 0  0.1565954253579966 0.6635489312486841 0  0.1598132503680848 0.7787147500325552 0  0.3146529991605639 0.8510876378205265 0  0.1461873209418733 0.05982804528877814 0  0.06109554988524315 0.2446551776247686 0  0.8054950308560754 0.5564226538848541 0  0.470541749491976 0.8853316336952531 0  0.6948472567465137 0.4042308563372457 0  0.8802828472348889 0.4658893256343853 0  0.6788075634946739 0.7974194205806069 0  0.2155048659603867 0.2428201584940968 0  0.8131223143423806 0.2132171049028394 0  0.4330798005432235 0.6671274900735726 0  0.6015279126162613 0.2187368078743274 0  0.8061636571464289 0.8703766630361714 0  0.7008230445061776 0.3478568388444072 0  0.8638466246958771 0.3147095987735538 0  0.204801534004265 0.8789209409594009 0  0.2449006736431132 0.9424182882803838 0  0.7611268409371427 0.2643056884799992 0  0.7552800864046191 0.7678006649959446 0  0.5983639638906616 0.864113435029236 0  0.1956559506814437 0.577281203577426 0  0.3527670268164207 0.1320469097565204 0  0.7530364577483248 0.3262386077083089 0  0.4535919187979363 0.4690107087451527 0  0.8824869791666666 0.8336588541666666 0  0.8814453125 0.9451171875 0  0.5582987942628019 0.622421666543858 0  0.6817532446064828 0.6939001801354731 0  0.3830295138888889 0.9450968952922078 0  0.4140603937012541 0.05211333372716105 0  0.5535864501303013 0.3060591985391672 0  0.6560130086346878 0.2729726562211558 0  0.890203140221684 0.5948314305427268 0  0.7043857725999024 0.593980890020804 0  0.5105843922695152 0.8016828014338627 0  0.05365910753708378 0.7315110031682004 0  0.616904573672261 0.4621186633436136 0  0.5338511646455415 0.387875898899613 0  0.5231769258947843 0.4477682463140762 0  0.650302973237622 0.7370722302085519 0  0.3927483139621257 0.4662414504529014 0  0.8034595960585199 0.4972538342758211 0  0.7738337841682438 0.9496376207663251 0  0.7193737507158268 0.954685447650112 0  0.482525916480686 0.5528257169991676 0  0.2533501157346781 0.2809495420003238 0  0.3118487924482243 0.5702930126570319 0  0.6257598847669529 0.4104163315430518 0  0.1354166666666667 0.1955605158730158 0  0.04166666666666666 0.15625 0  0.3956448985530264 0.6174149462065157 0  0.8102897701818546 0.3938784238208349 0  0.2641154190013625 0.8344469561943118 0  0.642852220770013 0.5068794586563659 0  0.05271458179508221 0.355846947336007 0  0.7021551360070266 0.8921457280225779 0  0.5692125776683765 0.1328512638850284 0  0.5206162811937602 0.04865158770992991 0  0.6001838442201555 0.04540556991297563 0  0.2597716608242787 0.4118346398477178 0  0.4040584599473195 0.3179589136784675 0  0.1480337679295207 0.8941560631483065 0  0.1344356707112281 0.9466251177415842 0  0.7114696411829317 0.4983917389078826 0  0.7585704698442475 0.5751926345944629 0  0.2189131956390871 0.04022068508159698 0  0.2476935455192043 0.1123642267635843 0  0.185995005654517 0.1365524537205238 0  0.6223414373308711 0.643380839165121 0  0.5732602596637543 0.7190051747306219 0  0.268358222364537 0.6586246524467934 0  0.3265879848129173 0.2369791782191225 0  0.1267095595787346 0.7034787238999181 0  0.1115202922226038 0.6421997933884982 0  0.3128688392940203 0.07260997451790079 0  0.550724900485678 0.9253360991633187 0  0.7142608810459105 0.2384904702214873 0  0.7045869185243887 0.1871826897887429 0  0.890625 0.734375 0  0.953125 0.765625 0  0.2111812642821677 0.8286209446459138 0  0.9590293078204457 0.09375 0  0.953431269039847 0.1435719386408004 0  0.04097069217955424 0.90625 0  0.04656873096015299 0.8564280613591996 0  0.1078743037981226 0.8541621766048062 0  0.8921256962018773 0.1458378233951939 0  0.8521576979194619 0.1084496634207678 0  0.8655663982740958 0.05464346096571447 0  0.04005659640905543 0.09375 0  0.1001448316533417 0.04246776244228261 
[...]
<PointData  Vectors="f_9649-1"> 
<DataArray  type="Float64"  Name="f_9649-1"  NumberOfComponents="3" format="ascii">4.9919582319023848e-03 8.4008261119109303e-03 0.0000000000000000e+00  -1.0338961390178869e-03 1.9172473584553647e-03 0.0000000000000000e+00  1.1108218118418005e-04 3.5964847547130863e-03 0.0000000000000000e+00  -2.2258984354120047e-04 -2.7061369997377384e-03 0.0000000000000000e+00  -2.5434504914770219e-03 4.0872819728587691e-03 0.0000000000000000e+00  6.5934945767132558e-04 1.1100128677246650e-03 0.0000000000000000e+00  -7.5790385572765398e-05 1.3849811007687119e-03 0.0000000000000000e+00  -1.0723630583824003e-03 2.6767933081449412e-03 0.0000000000000000e+00  1.1704722295790388e-04 5.4305872917761533e-04 0.0000000000000000e+00  -1.2981550896953966e-03 5.1294893729652577e-03 0.0000000000000000e+00  -3.6575243162045787e-03 5.6384388207925511e-03 0.0000000000000000e+00  8.7600908460637179e-04 -3.1520538307598114e-04 0.0000000000000000e+00  7.2048518754145230e-05 1.3005499278893665e-03 0.0000000000000000e+00  3.5248836641873919e-04 -3.7084484572664036e-04 0.0000000000000000e+00  -8.8892399825891890e-04 3.1423142724816694e-03 0.0000000000000000e+00  -1.0265421395110638e-04 1.8769218225015317e-03 0.0000000000000000e+00  -1.4612978644735176e-04 2.2869432726217095e-03 0.0000000000000000e+00  -5.3583601121983315e-04 2.0941477883546626e-03 0.0000000000000000e+00  -1.2347240701693486e-03 3.1325896385824888e-03 0.0000000000000000e+00  1.9112033975097050e-03 -1.0841652995985007e-03 0.0000000000000000e+00  2.0166529500584643e-04 4.9349009621956733e-04 0.0000000000000000e+00  2.8715378737401535e-03 -6.0473891085252229e-03 0.0000000000000000e+00  -4.1415849871104216e-04 1.4533568442256857e-03 0.0000000000000000e+00  2.1929771294493865e-04 -3.0935679641530952e-03 0.0000000000000000e+00  -1.9470716319396574e-04 1.2303425681140638e-03 0.0000000000000000e+00  -1.9817443423061410e-04 1.0772467841651504e-03 0.0000000000000000e+00  2.7481747418148521e-04 -2.6261284190973620e-03 0.0000000000000000e+00  -1.2106946229573092e-03 1.8471723898513762e-03 0.0000000000000000e+00  -3.1381943813104784e-04 1.2728678457747996e-03 0.0000000000000000e+00  6.0466104188947316e-04 2.7565617096597162e-03 0.0000000000000000e+00  -3.7388431918109226e-04 2.2726382297178833e-04 0.0000000000000000e+00  2.0140359544003461e-04 3.1242417461597701e-03 0.0000000000000000e+00  5.2639446488642559e-04 1.9114589345920669e-03 0.0000000000000000e+00  -5.4016074372638953e-05 1.7085618634099641e-03 0.0000000000000000e+00  1.8367029325676648e-04 -1.1020521494373046e-03 0.0000000000000000e+00  -1.1340642133397809e-03 3.5598183222247974e-03 0.0000000000000000e+00  -1.8005307904703132e-03 -3.1887555741010373e-03 0.0000000000000000e+00  -1.2259714448349750e-03 1.4219654818138213e-03 0.0000000000000000e+00  7.5306909950148256e-04 2.9946143235645276e-03 0.0000000000000000e+00  -9.7591701966201266e-05 1.2776844435348936e-03 0.0000000000000000e+00  -1.0693652253940637e-03 5.0699078415426110e-03 0.0000000000000000e+00  2.4286359811114542e-04 1.7389886740148731e-03 0.0000000000000000e+00  -1.7845007686983867e-03 4.5255631335888533e-03 0.0000000000000000e+00  1.4461811069955380e-03 -1.7486822393581230e-03 0.0000000000000000e+00  4.0881063705892873e-05 2.1750748314084598e-03 0.0000000000000000e+00  -6.4294624171847220e-04 2.9934813631444512e-03 0.0000000000000000e+00  -7.2586439078816377e-04 4.6307485397298418e-04 0.0000000000000000e+00  2.9142886297140419e-03 9.4669153644409546e-04 0.0000000000000000e+00  3.0593197174081760e-04 1.1130218880793443e-03 0.0000000000000000e+00  -9.6771394021375693e-05 6.1730107426583754e-03 0.0000000000000000e+00  -1.0719338900722249e-03 2.1333729420740435e-03 0.0000000000000000e+00  5.9443266050550358e-04 -1.2749470381734872e-04 0.0000000000000000e+00  -5.6581479787961219e-04 2.5430781937616515e-03 0.0000000000000000e+00  4.8655272236835384e-04 4.1120173060389233e-03 0.0000000000000000e+00  -2.5719656547992646e-04 5.6940744342849608e-03 0.0000000000000000e+00  8.4282813834449678e-05 3.2978605408400885e-04 0.0000000000000000e+00  3.9256592956580356e-04 -6.4711530522136042e-04 0.0000000000000000e+00  8.3797334001097954e-04 -3.4936281697901469e-04 0.0000000000000000e+00  -7.1637458728720355e-04 2.5613058249276104e-03 0.0000000000000000e+00  6.5252783566095924e-05 1.8762020404449503e-03 0.0000000000000000e+00  -1.1660009630648808e-04 1.3063739815535895e-03 0.0000000000000000e+00  -3.0466082496262842e-03 4.5789330393660116e-03 0.0000000000000000e+00  1.1877183251651443e-03 -6.6994926612075952e-04 0.0000000000000000e+00  3.5125715998883154e-04 1.2948650030487803e-03 0.0000000000000000e+00  5.0874971417572612e-04 -1.6678330099266978e-03 0.0000000000000000e+00  -9.4617194704077598e-04 3.1329735492189232e-03 0.0000000000000000e+00  1.1707312293913195e-04 2.1335012406211878e-03 0.0000000000000000e+00  1.6679714636175344e-03 -1.4028591258612138e-03 0.0000000000000000e+00  1.5135734631418167e-04 -2.9744894721486959e-03 0.0000000000000000e+00  -1.9739734023242177e-03 1.2170866203804189e-03 0.0000000000000000e+00  -1.4410385243730766e-03 1.6372886499036949e-03 0.0000000000000000e+00  -9.0097927979524068e-04 2.1310786797233204e-03 0.0000000000000000e+00  -1.7339610680388554e-04 -2.1336693356321392e-03 0.0000000000000000e+00  3.6491935919287863e-04 -1.1032162378771483e-03 0.0000000000000000e+00  -6.0828976978662933e-04 -8.1137802516972977e-03 0.0000000000000000e+00  -1.6998161347888960e-03 4.1725267420376078e-03 0.0000000000000000e+00  -1.1698178535805555e-04 6.7594349673976784e-04 0.0000000000000000e+00  -6.0646851901554211e-05 2.6756629379807292e-03 0.0000000000000000e+00  -1.0395334840692844e-04 9.5499449719354114e-04 0.0000000000000000e+00  7.6272804536580991e-04 -2.6224908586580734e-03 0.0000000000000000e+00  -1.0288801276061937e-03 8.0228139009862762e-04 0.0000000000000000e+00  8.5015791573076318e-04 -1.4285275210816253e-03 0.0000000000000000e+00  -2.4479258315414517e-04 2.2818089008745952e-03 0.0000000000000000e+00  4.7686963054822219e-04 1.6139326922300946e-03 0.0000000000000000e+00  -6.9224777597014719e-05 1.1578261596617539e-03 0.0000000000000000e+00  -1.3444348463192513e-03 8.3110669955679907e-04 0.0000000000000000e+00  1.1035988142459726e-03 -1.2817571234803424e-03 0.0000000000000000e+00  -2.7372301944078028e-04 1.8972699947385043e-03 0.0000000000000000e+00  1.1502189023206780e-03 -9.5388060813442806e-04 0.0000000000000000e+00  -1.4527875219700638e-03 7.8977508586701797e-04 0.0000000000000000e+00  9.8098854591328498e-04 -1.6685150163415746e-03 0.0000000000000000e+00  1.3985292421886267e-03 1.2128338172308658e-03 0.0000000000000000e+00  7.1830074531659214e-07 1.2784770410109189e-03 0.0000000000000000e+00  -4.6673190847841968e-04 1.0340873660722328e-03 0.0000000000000000e+00  -4.9365721618227184e-04 1.3567286199427206e-03 0.0000000000000000e+00  3.2034097509231712e-04 -1.0133585287682406e-03 0.0000000000000000e+00  -8.6490995910742160e-06 -4.4374378801412670e-03 0.0000000000000000e+00  -4.0348139017601500e-04 9.8957124024295559e-04 0.0000000000000000e+00  -6.9521995986231134e-04 9.0684364616060859e-04 0.0000000000000000e+00  -2.9087035671455583e-04 8.1011672480298938e-04 0.0000000000000000e+00  1.0779088964597953e-04 1.9956682398066423e-03 0.0000000000000000e+00  -1.4645921444825358e-04 -5.6136115038684693e-05 0.0000000000000000e+00  -4.2146639490659484e-04 2.1431609031420792e-03 0.0000000000000000e+00  -4.6440173361461472e-04 2.5402489450486562e-03 0.0000000000000000e+00  1.3031566837921867e-03 5.5033341571389871e-04 0.0000000000000000e+00  4.2757806991998795e-04 2.8127945119895245e-03 0.0000000000000000e+00  -1.2550821460634983e-03 2.3483508784784917e-03 0.0000000000000000e+00  -1.2438193594455052e-03 3.7615163414440999e-03 0.0000000000000000e+00  -2.0365425333754826e-04 1.6655206285816156e-03 0.0000000000000000e+00  -2.2137817522992925e-04 1.8142306043399084e-03 0.0000000000000000e+00  1.1002070462476279e-03 2.1141770016723299e-04 0.0000000000000000e+00  3.5598860538820303e-03 -4.8393718390597941e-04 0.0000000000000000e+00  -2.0481467074359295e-03 4.5192624806888789e-03 0.0000000000000000e+00  -5.2057735843946348e-04 -3.8014839995266264e-03 0.0000000000000000e+00  -1.9254763925025693e-03 -5.3730190780652397e-04 0.0000000000000000e+00  -5.8176534407269550e-04 -5.0673091035084890e-04 0.0000000000000000e+00  7.5789629363871077e-04 5.6163236954291955e-03 0.0000000000000000e+00  -2.0565500917825425e-04 -5.4539944366618497e-04 0.0000000000000000e+00  -2.0733542799533178e-05 1.4243128787549183e-03 0.0000000000000000e+00  -8.9599833296730071e-04 2.2176165652346958e-03 0.0000000000000000e+00  -1.9098762270507966e-03 5.0162594908230245e-04 0.0000000000000000e+00  3.4803352249795699e-04 2.1308680302552425e-04 0.0000000000000000e+00  -3.3689577098248270e-04 3.4943841562972270e-03 0.0000000000000000e+00  -3.7328061194599076e-04 2.4305047388009605e-04 0.0000000000000000e+00  2.4043742017759630e-03 -2.4528922473502678e-03 0.0000000000000000e+00  5.5181790614545402e-05 2.9300887255165409e-03 0.0000000000000000e+00  -1.1351507859142381e-03 6.8834580256427235e-04 0.0000000000000000e+00  2.5758792240560494e-05 1.4389826885896132e-03 0.0000000000000000e+00  2.0692020597986584e-06 1.4154401609986539e-03 0.0000000000000000e+00  -1.4831763480450484e-03 1.7624188461341241e-03 0.0000000000000000e+00  1.7145474235956369e-03 -1.3912133185075915e-03 0.0000000000000000e+00  -3.4873382810083643e-05 4.6367113852885058e-04 0.0000000000000000e+00  4.7998973462901669e-04 -9.8333986224113565e-04 0.0000000000000000e+00  -5.9910079741202745e-04 4.0471698359119878e-03 0.0000000000000000e+00  -4.3018562718878869e-03 2.2090915440847979e-03 0.0000000000000000e+00  -6.9767489504384689e-04 2.4187151748459508e-03 0.0000000000000000e+00  -1.4595293939444266e-04 4.1432675850728842e-03 0.0000000000000000e+00  -6.1161719270525264e-04 3.7506438978672290e-03 0.0000000000000000e+00  -3.4633933328023396e-04 -1.9348712795006851e-04 0.0000000000000000e+00  -1.4482690009735692e-04 3.1130630885289759e-03 0.0000000000000000e+00  3.2187547210529030e-03 6.1845409078414295e-04 0.0000000000000000e+00  -7.7620854888045825e-04 -6.6948835091052154e-04 0.0000000000000000e+00  -1.7082429366136480e-03 6.0026131597498665e-03 0.0000000000000000e+00  5.8141218243760945e-03 -3.1242631385856008e-03 0.0000000000000000e+00  -6.8514336528123146e-06 1.5521634083716588e-03 0.0000000000000000e+00  1.3482709273157124e-06 1.2174414217328959e-03 0.0000000000000000e+00  -4.2083756801428651e-04 4.4442212069600107e-03 0.0000000000000000e+00  4.0261636120227985e-05 1.2506265391982433e-03 0.0000000000000000e+00  2.5111101086013584e-03 -2.4611321788788852e-03 0.0000000000000000e+00  2.2894354114500097e-03 -2.6661750107898128e-03 0.0000000000000000e+00  -9.1693207305090633e-05 3.9846846452742356e-03 0.0000000000000000e+00  -2.1584917126612718e-03 4.9327557640747415e-03 0.0000000000000000e+00  -1.3010301040254292e-03 6.7671035712867332e-03 0.0000000000000000e+00  2.5306846158643635e-04 2.2019594767649321e-03 0.0000000000000000e+00  -5.4805689825427450e-03 7.1175377718606461e-04 0.0000000000000000e+00  -3.9141170537604971e-04 1.0804676450672118e-03 0.0000000000000000e+00  -2.3686413369694878e-05 2.0180972086657938e-03 0.0000000000000000e+00  -9.4653490516186729e-04 1.5259997172942137e-03 0.0000000000000000e+00  9.9937934846880492e-04 5.6343311223616592e-03 0.0000000000000000e+00  -3.8097917464842537e-04 -1.6656301301514473e-04 0.0000000000000000e+00  3.5998435079267577e-04 8.8843865405949934e-04 0.0000000000000000e+00  1.9645475088674264e-04 7.8154449986981482e-04 0.0000000000000000e+00  5.5356088838196915e-04 -3.9626861463806334e-04 0.0000000000000000e+00  -8.8920079204501566e-04 2.1065581790583681e-03 0.0000000000000000e+00  1.0950909402754477e-03 -1.5322452527463096e-03 0.0000000000000000e+00  1.0805815168490034e-03 -4.4652902602217268e-04 0.0000000000000000e+00  1.2988552930124847e-03 2.6816950610543069e-04 0.0000000000000000e+00  7.2068351154251200e-03 2.0987356277395400e-03 0.0000000000000000e+00  4.4676223144050004e-03 -3.4785330368306056e-03 0.0000000000000000e+00  2.1123969243461499e-03 -4.9498161510483129e-03 0.0000000000000000e+00  -1.7008948622527734e-03 3.3009285989701975e-03 0.0000000000000000e+00  -1.1974576495612848e-04 5.8180576701911428e-03 0.0000000000000000e+00  3.0230650010303951e-04 1.9707783118501796e-03 0.0000000000000000e+00  -1.6227685576666315e-03 4.3442220019215376e-03 0.0000000000000000e+00  2.5341478421500247e-03 -8.3346562870325876e-04 0.0000000000000000e+00  -8.0826596989673504e-05 1.4178971014149498e-03 0.0000000000000000e+00  1.1132919025285044e-03 -6.6292578442702721e-04 0.0000000000000000e+00  7.1078341599037874e-04 1.9951254960674392e-03 0.0000000000000000e+00  2.4178391818100095e-03 -1.9629347518351653e-03 0.0000000000000000e+00  1.3412918450643576e-03 -2.5002430288536977e-03 0.0000000000000000e+00  8.2457390903480316e-04 1.3765097188272678e-03 0.0000000000000000e+00  -6.6867465117579825e-04 4.4924263530265931e-04 0.0000000000000000e+00  6.2597589734977583e-04 9.6051118871088681e-04 0.0000000000000000e+00  -1.0329180278480183e-04 1.5162952771020034e-03 0.0000000000000000e+00  8.4955987652008216e-04 1.6089300800181433e-04 0.0000000000000000e+00  3.8662002594741995e-04 -9.4458963150478598e-05 0.0000000000000000e+00  -2.3989297033047142e-05 1.0732488655348800e-03 0.0000000000000000e+00  1.3363109572610705e-04 2.0082729477729030e-04 0.0000000000000000e+00  4.4975200501312423e-04 3.7022266632260811e-05 0.0000000000000000e+00  5.8474080957788481e-04 2.8538650064926195e-04 0.0000000000000000e+00  -5.1868470065075925e-04 3.8167872343713802e-03 0.0000000000000000e+00  8.3222064175104027e-04 -6.4684733585811355e-04 0.0000000000000000e+00  -1.3215496006020817e-03 5.3329658059596604e-03 0.0000000000000000e+00  6.4874603549637468e-04 7.6026140909455425e-03 0.0000000000000000e+00  -3.3240067205155010e-03 2.0769022943135824e-03 0.0000000000000000e+00  -3.6938841769067383e-04 3.9618462286467497e-03 0.0000000000000000e+00  3.1460679883147046e-03 -8.4432873781814792e-04 0.0000000000000000e+00  -3.3609581858829369e-03 5.6994609349585359e-03 0.0000000000000000e+00  -1.7965087794809525e-04 1.5260065105742529e-03 0.0000000000000000e+00  1.3327930218956833e-04 2.2648558729922502e-03 0.0000000000000000e+00  -7.5691179255606101e-04 1.5667577494973017e-03 0.0000000000000000e+00  1.3969844261565994e-03 -5.1603311224825811e-03 0.0000000000000000e+00  -1.0246997639545765e-04 3.4123922116720772e-04 0.0000000000000000e+00  -5.7472168486126561e-05 2.5807442007191846e-03 0.0000000000000000e+00  -1.3005520065265638e-03 1.6044655084685453e-03 0.0000000000000000e+00  1.8339405049811535e-03 -1.5879686642343840e-03 0.0000000000000000e+00  4.5683900246316716e-04 7.9790948238071726e-04 0.0000000000000000e+00  -9.4580524430947855e-04 1.1666398774962193e-03 0.0000000000000000e+00  -1.2412405409943129e-03 4.1094128217546173e-03 0.0000000000000000e+00  2.8158462298113656e-03 -5.3038479985277392e-04 0.0000000000000000e+00  -2.4751199460953824e-04 1.3724857603787169e-03 0.0000000000000000e+00  -4.8106181022326020e-04 8.4983011886120092e-04 0.0000000000000000e+00  -5.7638631836758394e-04 4.2570477804312438e-03 0.0000000000000000e+00  2.8191373419459657e-04 2.3130992643615629e-03 0.0000000000000000e+00  3.3785690807328029e-04 1.4541678023336218e-03 0.0000000000000000e+00  -1.6241602409390759e-03 3.0496327032242285e-03 0.0000000000000000e+00  -1.1201523529316697e-03 -1.1307873811882230e-03 0.0000000000000000e+00  -1.2423199691570345e-03 1.0282331588860013e-03 0.0000000000000000e+00  -2.8873667461676181e-04 4.3764601638105437e-03 0.0000000000000000e+00  -2.2817083901647672e-04 1.2416197802510103e-03 0.0000000000000000e+00  6.0316321321978198e-04 4.3071166443983807e-03 0.0000000000000000e+00  -6.8375329140938680e-04 1.5346649627800174e-03 0.0000000000000000e+00  -6.5758409135131465e-04 3.7829058883402005e-03 0.0000000000000000e+00  -1.0778634807970845e-03 1.4876432898121945e-03 0.0000000000000000e+00  5.0077933758775617e-04 -1.9320718692895531e-04 0.0000000000000000e+00  -2.5873318319265140e-05 1.3484361365932800e-03 0.0000000000000000e+00  2.0683940736760352e-04 1.2029646046716846e-03 0.0000000000000000e+00  2.3066187003038891e-04 1.0443098094133107e-03 0.0000000000000000e+00  -1.2031627565726477e-03 2.6865375696357285e-03 0.0000000000000000e+00  5.1020009569334023e-04 -2.1398646624337641e-03 0.0000000000000000e+00  -6.8714364119194056e-04 2.1634758107040627e-03 0.0000000000000000e+00  -6.7313897696393617e-06 1.6680184458439525e-03 0.0000000000000000e+00  -1.2911058119462733e-03 3.1768079430035592e-03 0.0000000000000000e+00  1.4781414426413982e-04 -1.2032935318522306e-04 0.0000000000000000e+00  2.1217492017381749e-04 1.3959657100083948e-03 0.0000000000000000e+00  3.3006835210634363e-04 1.6990169980963467e-03 0.0000000000000000e+00  2.8218705621734282e-03 6.9840696547042187e-03 0.0000000000000000e+00  -8.6251464780792307e-04 2.7328849342736299e-03 0.0000000000000000e+00  -8.1715092360569311e-04 -1.6677287981075517e-03 0.0000000000000000e+00  -4.8849150028005189e-05 1.3556682631528179e-03 0.0000000000000000e+00  -5.5057951275726226e-05 2.7119639257968623e-03 0.0000000000000000e+00  -5.1977387656087278e-05 2.7347877213847790e-04 0.0000000000000000e+00  -7.5474834180760605e-04 6.5767166818435211e-04 0.0000000000000000e+00  -1.1754243807576518e-03 1.7199618106452266e-03 0.0000000000000000e+00  6.4137396344510580e-04 -1.6628937191392414e-03 0.0000000000000000e+00  2.7882176655879814e-03 -2.0040367806124504e-03 0.0000000000000000e+00  3.2197765516485491e-04 4.2427508012648477e-04 0.0000000000000000e+00  -3.1470825758378462e-04 6.5324603950427823e-04 0.0000000000000000e+00  -4.4795084366777704e-04 1.4244916039608372e-03 0.0000000000000000e+00  -1.0895960885198115e-04 1.5004626520913407e-03 0.0000000000000000e+00  -1.2198309337974213e-04 1.6295681112800690e-03 0.0000000000000000e+00  -3.1021284892165457e-03 3.6625982553718742e-03 0.0000000000000000e+00  -1.8047769807158515e-03 6.4388782503847809e-03 0.0000000000000000e+00  -1.8073209237919467e-04 -2.7776153075467808e-03 0.0000000000000000e+00  -1.7822704760461941e-03 3.8021696848663279e-03 0.0000000000000000e+00  -1.0422919423624396e-05 -5.1134079352758727e-03 0.0000000000000000e+00  4.4925485464208381e-03 -4.2030800996845962e-03 0.0000000000000000e+00  6.5615851807312325e-04 1.9580047458740753e-03 0.0000000000000000e+00  -1.0512808831815055e-04 1.0412487213940411e-03 0.0000000000000000e+00  1.0402164440985002e-03 -7.8561887474911263e-05 0.0000000000000000e+00  2.5470235713748434e-04 -1.4356973073615985e-03 0.0000000000000000e+00  -1.8229278357205980e-03 1.9822851429529870e-03 0.0000000000000000e+00  -8.2310215914230657e-05 1.4916937325282782e-03 0.0000000000000000e+00  -5.6414768435794041e-04 -4.4456588744250071e-03 0.0000000000000000e+00  3.5199079942392726e-03 1.0797212756605951e-05 0.0000000000000000e+00  -6.1996283133182624e-05 -1.8229798704033065e-03 0.0000000000000000e+00  1.5483492029188957e-03 -6.5349498261907911e-03 0.0000000000000000e+00  7.4370985021117539e-04 1.5530510731915424e-03 0.0000000000000000e+00  -3.6739261966360626e-04 3.5391819899400880e-03 0.0000000000000000e+00  5.2820113005357615e-04 -1.2602018729231855e-04 0.0000000000000000e+00  1.9110883686937830e-03 6.6432380735794707e-04 0.0000000000000000e+00  -4.2638220749525980e-05 3.1191990293978958e-04 0.0000000000000000e+00  -3.3244868035598061e-03 6.8303944218941776e-03 0.0000000000000000e+00  1.1995761581732049e-04 3.4280955117123057e-03 0.0000000000000000e+00  1.3006312488528405e-03 7.5753025935678519e-03 0.0000000000000000e+00  1.2076289391833107e-04 2.7277086270883588e-04 0.0000000000000000e+00  8.3705984972377951e-05 1.3470777701204912e-03 0.0000000000000000e+00  1.5858513553776887e-03 -3.0285834057963430e-04 0.0000000000000000e+00  2.2218211360333054e-07 6.4965414840680198e-05 0.0000000000000000e+00  -1.9237427437926034e-04 1.2735640445348251e-03 0.0000000000000000e+00  -8.7959411090650678e-04 2.0372298488594053e-03 0.00000