<?xml version="1.0"?>
<VTKFile type="UnstructuredGrid"  version="0.1"  >
<UnstructuredGrid>
<Piece  NumberOfPoints="1385" NumberOfCells="2640">
<Points>
<DataArray  type="Float64"  NumberOfComponents="3"  format="ascii">0 0 0  1 0 0  1 1 0  0 1 0  0.5 0 0  1 0.5 0  0.5 1 0  0 0.5 0  0.5 0.5 0  0 0.25 0  0.25 0 0  0.25 1 0  0 0.75 0  1 0.25 0  0.75 0 0  1 0.75 0  0.75 1 0  0.7083333333333333 0.2916666666666667 0  0.2916666666666666 0.7083333333333334 0  0.375 0.25 0  0.75 0.625 0  0.2569444444444444 0.4652777777777778 0  0.5366379310344828 0.7535919540229885 0  0.1875 0.1875 0  0.8125 0.8125 0  0.869047619047619 0.375 0  0.1450441919191919 0.6052714646464646 0  0.375 0.8690476190476191 0  0.5526960784313725 0.1825980392156862 0  0.8385416666666666 0.1614583333333334 0  0.1614583333333333 0.8385416666666667 0  0.6736111111111112 0.4652777777777778 0  0.1367521367521368 0.3477564102564102 0  0.6570970491253563 0.8648656830417855 0  0.5102479397556124 0.3386260301221938 0  0.3654513888888889 0.5737847222222222 0  0.6929750044954185 0.1362784921584263 0  0.388576102743835 0.411911725237599 0  0.6091269841269842 0.5942460317460317 0  0.875 0.6875 0  0.427278890279516 0.119889445139758 0  0.8544456845238095 0.5213913690476191 0  0.125 0 0  0 0.125 0  1 0.875 0  0.875 1 0  0.1280008648150532 0.4769292340226777 0  0.2695382451711197 0.3321750950221553 0  0.7031567235715964 0.7447810921428012 0  0.625 0 0  0.375 0 0  0.125 1 0  0.875 0 0  0 0.375 0  0 0.625 0  1 0.375 0  0.375 1 0  1 0.125 0  0 0.875 0  0.625 1 0  1 0.625 0  0.2979288363930608 0.1201429454643536 0  0.410919540229885 0.7484605911330049 0  0.5325041980395562 0.878905151526474 0  0.4831670727569156 0.6331060043826487 0  0.1735997378973042 0.7204747378973043 0  0.2534919507575758 0.5772372159090909 0  0.2633928571428572 0.8876488095238095 0  0.8199404761904761 0.2730654761904762 0  0.75830270586982 0.3919383189517417 0  0.5750282248382511 0.4237522353023667 0  0.6008360210023379 0.2794828358598495 0  0.08163442644334186 0.6821295860397322 0  0.08333333333333333 0.1875 0  0.2028380815996574 0.08844602719988583 0  0.2766521142611967 0.2325436572164097 0  0.90625 0.78125 0  0.890625 0.890625 0  0.7545696325008384 0.8973565441669461 0  0.5625 0.08086590340834317 0  0.09077380952380953 0.09077380952380952 0  0.4610923478694773 0.209034015149656 0  0.7542527598351648 0.5248380520595106 0  0.6459235536037465 0.3619913988405765 0  0.7560381768882634 0.20506142233852 0  0.07073252688172042 0.8125 0  0.0924753097241701 0.9078102849914793 0  0.9292674731182795 0.1875 0  0.9075246902758297 0.09218971500852073 0  0.8125 0.07073252688172045 0  0.2400955776842301 0.7869705776842302 0  0.9121050213379069 0.2781978201831695 0  0.7916878157143976 0.7239689078571988 0  0.9345238095238094 0.4375 0  0.4375 0.9345238095238095 0  0.3725616989755203 0.6651895248862173 0  0.06536271996350887 0.5625 0  0.9348362560379583 0.5625 0  0.456646798987055 0.8277247094351965 0  0.1875 0.9355758238725954 0  0.6169761231634859 0.6939779188977889 0  0.6226854751147515 0.7827911461419014 0  0.3305695598137626 0.7901697871282585 0  0.5865305325818898 0.5101085479043448 0  0.6622701297028378 0.2177663989757395 0  0.1354166666666667 0.2591702279202279 0  0 0.3125 0  0.2094429575680048 0.3936361846162499 0  0.836666296419157 0.607917407161686 0  0.6875 1 0  0.214261555450504 0.6492551722020035 0  0 0.4375 0  0.07731537126068377 0.40625 0  0.3427725432967068 0.4879566233699599 0  0.3550792513951871 0.3331953632609953 0  0.4462473953896857 0.2887834789342508 0  0.4747801464819794 0.417386052030127 0  0.8229836475148948 0.4443292349237342 0  0.7322605135514757 0.8199240278289671 0  0.6756431877205955 0.5468989748126787 0  0.1968419507215863 0.5194573482612496 0  0.3285590277777778 0.9345238095238095 0  0.8125 1 0  0.4198917601920009 0.5134893045331258 0  0.5232405503206691 0.2595791787880157 0  1 0.9375 0  0.1987510870015086 0.3025185951894431 0  0.5625 1 0  0.6005390654136388 0.9228110509230952 0  0.6411254848194414 0.07704872765442942 0  0.3357233162523242 0.1855113224530532 0  0.6730653396610877 0.6393887462324165 0  0.310966987234063 0.6240019765311626 0  0.7368737836204349 0.07457755202327881 0  0.6192316414418171 0.1485238406378594 0  0.5432429670607106 0.678552703844006 0  0.4754371679695679 0.7103946803120881 0  0.07501324890749672 0.3043839897335739 0  0.5358146975860403 0.5688321463205916 0  0.3115271739500156 0.3982137365971444 0  0.3625191397122174 0.0767854603650549 0  0.5024029442563831 0.1264128223758444 0  0.4375 0 0  0.4699946908887376 0.06379961173775725 0  0.9375 0.71875 0  0.9272105898044465 0.635671179608893 0  0.9375 1 0  0.6690971819568612 0.9331530898202766 0  0.1073454944778885 0.7499206387638554 0  0.8699082999280406 0.2232403652524313 0  0.5773118091863964 0.3548027349159383 0  0.1354166666666667 0.1428571428571428 0  0.3125 0 0  0.8241684193077341 0.9257452995055244 0  0.4352314948354036 0.3586940847489378 0  0.4351301473778832 0.5819726043539077 0  0.8073232928518163 0.3419398170341962 0  0.7775949246947366 0.1298519409204575 0  0.6875 0 0  0.7413513991851041 0.457933324954483 0  0.939453125 0.841796875 0  0.5630355154606987 0.8171875156478349 0  0.9345238095238095 0.3461466592368577 0  0.9375 0 0  1 0.0625 0  0.0625 1 0  0 0.9375 0  0.06552178593177167 0.4969053669623468 0  0.1424866619031703 0.4130277709291224 0  0.1275287182444726 0.5422946908002588 0  0.2637686595586339 0.06413888464529549 0  0.2524263535491086 0.1697437503243817 0  0.7367218397988525 0.6888573970660841 0  0.0625 0 0  0 0.0625 0  0.8463594539285995 0.7578283617857982 0  0.3128751192101563 0.2851997374369947 0  0.4015281788351144 0.1806421385113692 0  0.1910251795116588 0.4553332197174453 0  0.287797471442006 0.5222621440543902 0  0.3962628745986055 0.8097380085535307 0  0.3505895299554843 0.7304878890838692 0  0.5019151500495276 0.9356042615328103 0  0.9374389419410134 0.4999931039076005 0  0.3125 1 0  0.1875 1 0  1 0.5625 0  0.4375 1 0  1 0.3125 0  1 0.4375 0  0.8125 0 0  1 0.1875 0  0.5625 0 0  0.1875 0 0  0 0.1875 0  0 0.5625 0  0 0.6875 0  0 0.8125 0  1 0.6875 0  1 0.8125 0  0.8021696218581627 0.6612893947866073 0  0.06154922295426143 0.6239401126946708 0  0.9359375 0.9359375 0  0.4666158024849896 0.7691515918155014 0  0.2318201265217025 0.7064974250277525 0  0.1565954253579966 0.6635489312486841 0  0.1598132503680848 0.7787147500325552 0  0.3146529991605639 0.8510876378205265 0  0.1461873209418733 0.05982804528877814 0  0.06109554988524315 0.2446551776247686 0  0.8054950308560754 0.5564226538848541 0  0.470541749491976 0.8853316336952531 0  0.6948472567465137 0.4042308563372457 0  0.8802828472348889 0.4658893256343853 0  0.6788075634946739 0.7974194205806069 0  0.2155048659603867 0.2428201584940968 0  0.8131223143423806 0.2132171049028394 0  0.4330798005432235 0.6671274900735726 0  0.6015279126162613 0.2187368078743274 0  0.8061636571464289 0.8703766630361714 0  0.7008230445061776 0.3478568388444072 0  0.8638466246958771 0.3147095987735538 0  0.204801534004265 0.8789209409594009 0  0.2449006736431132 0.9424182882803838 0  0.7611268409371427 0.2643056884799992 0  0.7552800864046191 0.7678006649959446 0  0.5983639638906616 0.864113435029236 0  0.1956559506814437 0.577281203577426 0  0.3527670268164207 0.1320469097565204 0  0.7530364577483248 0.3262386077083089 0  0.4535919187979363 0.4690107087451527 0  0.8824869791666666 0.8336588541666666 0  0.8814453125 0.9451171875 0  0.5582987942628019 0.622421666543858 0  0.6817532446064828 0.6939001801354731 0  0.3830295138888889 0.9450968952922078 0  0.4140603937012541 0.05211333372716105 0  0.5535864501303013 0.3060591985391672 0  0.6560130086346878 0.2729726562211558 0  0.890203140221684 0.5948314305427268 0  0.7043857725999024 0.593980890020804 0  0.5105843922695152 0.8016828014338627 0  0.05365910753708378 0.7315110031682004 0  0.616904573672261 0.4621186633436136 0  0.5338511646455415 0.387875898899613 0  0.5231769258947843 0.4477682463140762 0  0.650302973237622 0.7370722302085519 0  0.3927483139621257 0.4662414504529014 0  0.8034595960585199 0.4972538342758211 0  0.7738337841682438 0.9496376207663251 0  0.7193737507158268 0.954685447650112 0  0.482525916480686 0.5528257169991676 0  0.2533501157346781 0.2809495420003238 0  0.3118487924482243 0.5702930126570319 0  0.6257598847669529 0.4104163315430518 0  0.1354166666666667 0.1955605158730158 0  0.04166666666666666 0.15625 0  0.3956448985530264 0.6174149462065157 0  0.8102897701818546 0.3938784238208349 0  0.2641154190013625 0.8344469561943118 0  0.642852220770013 0.5068794586563659 0  0.05271458179508221 0.355846947336007 0  0.7021551360070266 0.8921457280225779 0  0.5692125776683765 0.1328512638850284 0  0.5206162811937602 0.04865158770992991 0  0.6001838442201555 0.04540556991297563 0  0.2597716608242787 0.4118346398477178 0  0.4040584599473195 0.3179589136784675 0  0.1480337679295207 0.8941560631483065 0  0.1344356707112281 0.9466251177415842 0  0.7114696411829317 0.4983917389078826 0  0.7585704698442475 0.5751926345944629 0  0.2189131956390871 0.04022068508159698 0  0.2476935455192043 0.1123642267635843 0  0.185995005654517 0.1365524537205238 0  0.6223414373308711 0.643380839165121 0  0.5732602596637543 0.7190051747306219 0  0.268358222364537 0.6586246524467934 0  0.3265879848129173 0.2369791782191225 0  0.1267095595787346 0.7034787238999181 0  0.1115202922226038 0.6421997933884982 0  0.3128688392940203 0.07260997451790079 0  0.550724900485678 0.9253360991633187 0  0.7142608810459105 0.2384904702214873 0  0.7045869185243887 0.1871826897887429 0  0.890625 0.734375 0  0.953125 0.765625 0  0.2111812642821677 0.8286209446459138 0  0.9590293078204457 0.09375 0  0.953431269039847 0.1435719386408004 0  0.04097069217955424 0.90625 0  0.04656873096015299 0.8564280613591996 0  0.1078743037981226 0.8541621766048062 0  0.8921256962018773 0.1458378233951939 0  0.8521576979194619 0.1084496634207678 0  0.8655663982740958 0.05464346096571447 0  0.04005659640905543 0.09375 0  0.1001448316533417 0.04246776244228261 
[...]
<PointData  Vectors="f_8505-0"> 
<DataArray  type="Float64"  Name="f_8505-0"  NumberOfComponents="3" format="ascii">7.1618792905842540e-03 3.2945681317909079e-03 0.0000000000000000e+00  -6.6936336246392787e-05 -3.1046878071646971e-04 0.0000000000000000e+00  1.9475796041558812e-03 2.1295144452553082e-04 0.0000000000000000e+00  4.0748444487307004e-03 3.2233756909884814e-04 0.0000000000000000e+00  1.8918270088703329e-03 -4.9800710558650270e-03 0.0000000000000000e+00  -5.7530702529274235e-04 1.6811828331150864e-04 0.0000000000000000e+00  1.7002687479834351e-04 -2.1776079561879776e-04 0.0000000000000000e+00  3.0315358826439980e-03 -1.2864061268143116e-03 0.0000000000000000e+00  -1.0278408694872087e-03 -5.1817772310239815e-04 0.0000000000000000e+00  7.1575622804202974e-03 3.6370159345026519e-04 0.0000000000000000e+00  2.4808799582278825e-03 -2.8051888103339450e-03 0.0000000000000000e+00  -8.5386872391206910e-04 1.6451131574637642e-03 0.0000000000000000e+00  6.5021387569895780e-03 -1.1490897531842210e-03 0.0000000000000000e+00  -1.6347512613659782e-03 4.8414532904945474e-04 0.0000000000000000e+00  -5.0860946654072395e-04 1.5736706785217940e-03 0.0000000000000000e+00  1.0001476192890491e-03 -1.6196860973019563e-04 0.0000000000000000e+00  7.7038841544711432e-04 -4.1143443956094463e-04 0.0000000000000000e+00  2.3142263655408755e-04 -1.0462382345922689e-03 0.0000000000000000e+00  8.2034735259211753e-04 -4.8236786431508336e-04 0.0000000000000000e+00  -1.8111924682939636e-03 1.8428022185540665e-03 0.0000000000000000e+00  5.8362708640285945e-04 5.1517243390013017e-04 0.0000000000000000e+00  1.7030044109861671e-03 -2.0818912004614688e-03 0.0000000000000000e+00  5.4226940821880463e-04 6.1516086331067676e-04 0.0000000000000000e+00  -1.8775555452459447e-03 -3.1487120774865984e-03 0.0000000000000000e+00  7.2795637501595469e-06 -1.6436110239897254e-04 0.0000000000000000e+00  1.2104584478519339e-03 1.0836486390973548e-04 0.0000000000000000e+00  -1.6221259269194595e-03 1.1405975227302479e-03 0.0000000000000000e+00  2.2362470244286373e-03 9.2956894090463472e-05 0.0000000000000000e+00  2.7476412669985881e-03 7.5287499351236217e-04 0.0000000000000000e+00  -1.3434905466556282e-03 2.8064173267848059e-04 0.0000000000000000e+00  -1.3517029840431172e-03 -2.3972453366031334e-04 0.0000000000000000e+00  -8.0597710099044500e-04 -1.6648096732009179e-03 0.0000000000000000e+00  -1.7235277135605347e-03 5.6628880199311815e-04 0.0000000000000000e+00  1.3087986013422522e-04 -1.2411147455942029e-04 0.0000000000000000e+00  -1.7727440966260177e-03 -1.5674212203131215e-03 0.0000000000000000e+00  4.7198076905656900e-03 3.5775887009463860e-05 0.0000000000000000e+00  -5.3557695304936280e-03 -1.6292604372768855e-04 0.0000000000000000e+00  1.1522408178305070e-03 2.2576735171221493e-03 0.0000000000000000e+00  -6.6929042700575694e-04 1.2749208425781502e-03 0.0000000000000000e+00  -4.1169208390956331e-05 1.4000799270793439e-05 0.0000000000000000e+00  9.7018872794408064e-04 -2.4653301351027245e-03 0.0000000000000000e+00  6.4074515940586467e-04 1.4294785168934897e-05 0.0000000000000000e+00  2.3277295886986698e-03 -1.7876458243940236e-03 0.0000000000000000e+00  5.5437663574390214e-03 -2.5923008065925827e-03 0.0000000000000000e+00  1.7720202018183767e-03 -2.8746984647050301e-04 0.0000000000000000e+00  2.6083618299641909e-04 -1.4915387311011238e-03 0.0000000000000000e+00  1.2899711067437926e-03 -6.5115146200735814e-04 0.0000000000000000e+00  5.7366630881178536e-03 2.9694241092317593e-04 0.0000000000000000e+00  -2.0277325083928297e-04 2.2461205833834252e-04 0.0000000000000000e+00  3.8579499349385427e-03 -9.8729919500260507e-04 0.0000000000000000e+00  1.9631607984943573e-03 -1.9735129221592541e-04 0.0000000000000000e+00  -1.1479506390190278e-03 7.7674903387374406e-04 0.0000000000000000e+00  1.6086731074585485e-03 -5.9718839051915869e-04 0.0000000000000000e+00  7.0835272172381268e-03 -4.6719852149416908e-04 0.0000000000000000e+00  6.8158881742678944e-03 7.0637607927203500e-05 0.0000000000000000e+00  -1.4169218578379734e-03 2.5697864088608725e-04 0.0000000000000000e+00  -5.2111536473651351e-04 -1.1741061865116337e-04 0.0000000000000000e+00  -1.1535299971929434e-03 8.2514963986395214e-04 0.0000000000000000e+00  2.5053973684772994e-03 -1.0470823955758702e-03 0.0000000000000000e+00  3.0123745933554024e-04 -5.7249951291509731e-05 0.0000000000000000e+00  1.2318403138928327e-04 -8.5335207251448217e-05 0.0000000000000000e+00  -8.1835055011117170e-04 -1.0940706893595967e-03 0.0000000000000000e+00  -1.3786613053783107e-03 1.1279841320488363e-03 0.0000000000000000e+00  -1.1953048439763286e-04 1.9611405009952587e-04 0.0000000000000000e+00  -8.1006242541771089e-04 8.6304982382884744e-04 0.0000000000000000e+00  5.5870262552908416e-04 -1.9528810649702640e-03 0.0000000000000000e+00  1.4509740797614425e-03 7.4093935533532575e-04 0.0000000000000000e+00  -1.5899788169774392e-04 2.4572721638891319e-04 0.0000000000000000e+00  -3.2068307878196072e-03 1.0833759506453103e-04 0.0000000000000000e+00  -1.5161198948140386e-03 -1.0898050254252742e-03 0.0000000000000000e+00  -3.6630627550303998e-04 -9.8375764299490085e-04 0.0000000000000000e+00  5.0726475707170123e-03 6.7165814089184094e-04 0.0000000000000000e+00  -1.0115513192040923e-03 7.9013407730883182e-04 0.0000000000000000e+00  -3.7473220422813611e-03 -1.4427073255827445e-03 0.0000000000000000e+00  -5.6807479600820918e-03 1.5154540877840412e-03 0.0000000000000000e+00  3.7310071875820668e-03 -1.4213001464054356e-03 0.0000000000000000e+00  3.3703184834567117e-04 -4.0093911149903169e-04 0.0000000000000000e+00  8.1879542715353757e-05 5.1526150635215772e-06 0.0000000000000000e+00  1.1979472787719463e-04 -4.4685086568015673e-04 0.0000000000000000e+00  -3.4202394420328359e-03 -1.3339939275011951e-04 0.0000000000000000e+00  3.7394891275334703e-03 -2.1705404549067207e-03 0.0000000000000000e+00  -4.2393122046929990e-03 7.1819365725846174e-04 0.0000000000000000e+00  4.2124035320618085e-04 -6.8710355261195879e-05 0.0000000000000000e+00  -5.7249134679207005e-04 -3.5161451529196110e-05 0.0000000000000000e+00  1.1126910689072504e-03 1.0703085825531501e-03 0.0000000000000000e+00  2.4843628792942164e-03 5.8717730904375395e-04 0.0000000000000000e+00  1.6039278003674954e-03 3.4931547941907692e-04 0.0000000000000000e+00  2.2709121440699347e-03 -8.2873206109142976e-04 0.0000000000000000e+00  -2.1665021505027134e-03 6.3634920780307957e-04 0.0000000000000000e+00  1.1727331389091691e-03 -1.5443164007682281e-03 0.0000000000000000e+00  -1.0287859321808648e-03 8.0667135743552748e-04 0.0000000000000000e+00  9.0369864997356377e-04 6.2385370442263031e-04 0.0000000000000000e+00  2.1750683851149536e-04 -1.6840929029626654e-05 0.0000000000000000e+00  9.0190404943959546e-04 -2.7421505868203077e-04 0.0000000000000000e+00  1.0199731949928628e-03 9.3491862775906033e-05 0.0000000000000000e+00  -2.4568342245901531e-03 -9.7231030352680660e-05 0.0000000000000000e+00  -1.8216431984315817e-03 3.1758776116046954e-03 0.0000000000000000e+00  4.6763756091524602e-04 3.5101860338257485e-05 0.0000000000000000e+00  1.1840874844974683e-03 -1.2346477949134042e-03 0.0000000000000000e+00  -1.0517595006669421e-03 5.9132973439706316e-04 0.0000000000000000e+00  -1.2963390184293430e-04 -6.2808118993396955e-04 0.0000000000000000e+00  2.0511716823608250e-04 2.7151512997624185e-04 0.0000000000000000e+00  1.0005982048780660e-04 -3.8263753410012406e-03 0.0000000000000000e+00  1.4091993237721060e-03 -7.8862094488834733e-04 0.0000000000000000e+00  -1.5098912690511587e-03 2.6332604093501585e-03 0.0000000000000000e+00  -1.8914416164082179e-03 -1.5185529687118085e-03 0.0000000000000000e+00  9.9135366896251922e-04 -1.6122319875337995e-03 0.0000000000000000e+00  -1.8680339157786476e-04 -1.3174088016034184e-03 0.0000000000000000e+00  -4.3439054487143562e-04 2.5377268215192819e-04 0.0000000000000000e+00  2.5801393449090173e-04 -2.6656907421362453e-04 0.0000000000000000e+00  -2.6815842824994668e-04 1.2326953916006421e-03 0.0000000000000000e+00  4.3123480866768833e-03 -1.9283349908058882e-03 0.0000000000000000e+00  -1.4267543268202708e-03 2.2122479942956243e-04 0.0000000000000000e+00  -3.5054310145991117e-03 -1.0833056282370673e-03 0.0000000000000000e+00  -1.6108102410123996e-03 -1.7360771366664238e-03 0.0000000000000000e+00  1.8900169270184048e-03 1.4706814452781136e-03 0.0000000000000000e+00  4.3867923570066296e-05 -2.6000856104436347e-03 0.0000000000000000e+00  -1.1528995730278901e-03 6.2275566513613726e-04 0.0000000000000000e+00  8.6647577161526199e-05 1.6612688738998447e-05 0.0000000000000000e+00  -2.9016936738455345e-04 -9.3681768818537170e-04 0.0000000000000000e+00  -4.1540169126441555e-03 -6.2510276920951888e-04 0.0000000000000000e+00  -7.2151904604065534e-04 5.1684978771609444e-05 0.0000000000000000e+00  1.5794378342807727e-03 -1.0182048917275115e-03 0.0000000000000000e+00  2.6877384116833704e-03 -7.3589284294539488e-03 0.0000000000000000e+00  -2.2711361239768075e-03 1.4995179873479535e-03 0.0000000000000000e+00  2.3931520602931272e-03 7.5738286420904896e-05 0.0000000000000000e+00  1.8235672141511611e-03 -9.4417492716174548e-04 0.0000000000000000e+00  3.1651717429826754e-05 3.4337695090354598e-05 0.0000000000000000e+00  3.2757555928455983e-04 -5.5858886611345681e-05 0.0000000000000000e+00  2.0165257332389569e-03 -2.1388854674786843e-03 0.0000000000000000e+00  4.5953122811897831e-03 7.3492840094704188e-04 0.0000000000000000e+00  9.8595221041338638e-04 -1.2820366327754068e-04 0.0000000000000000e+00  -3.1651115399666569e-03 4.5606512285838348e-04 0.0000000000000000e+00  3.8099349476373974e-03 -2.8187362120722019e-04 0.0000000000000000e+00  2.4248174628971699e-03 -1.9310992498623981e-03 0.0000000000000000e+00  1.2691870105500473e-03 -7.3123238379657922e-04 0.0000000000000000e+00  1.6377538196307459e-03 -8.4417786963519469e-04 0.0000000000000000e+00  -2.1490539363545917e-03 -1.4715919475872535e-04 0.0000000000000000e+00  1.4333768550144458e-03 -2.6371300495501936e-04 0.0000000000000000e+00  1.3547955831325687e-03 -2.0921669552494185e-03 0.0000000000000000e+00  1.1659084409598882e-04 3.1054006719897979e-03 0.0000000000000000e+00  -1.8068495087988881e-03 -1.0697202444640420e-03 0.0000000000000000e+00  1.8225886617018686e-03 -5.8965534879282461e-04 0.0000000000000000e+00  -5.6325309390493883e-04 3.3860499588256576e-04 0.0000000000000000e+00  4.2354991675584523e-04 -5.7831855378436562e-05 0.0000000000000000e+00  1.1312260758097748e-05 -1.0105074123686490e-05 0.0000000000000000e+00  1.1430907250567859e-03 3.4719163901716693e-04 0.0000000000000000e+00  -5.3731087855270941e-05 8.7962588323727323e-05 0.0000000000000000e+00  -3.0738103109124683e-03 8.8397895408058049e-04 0.0000000000000000e+00  -8.2308122670101585e-04 3.6029162767105472e-04 0.0000000000000000e+00  4.4855174326046045e-03 -7.3154618630268163e-04 0.0000000000000000e+00  8.6358972983191984e-05 -1.8051643283315574e-04 0.0000000000000000e+00  3.3919700193145537e-03 -1.3652420838911792e-03 0.0000000000000000e+00  -2.6962477273146409e-04 3.2713641928367403e-04 0.0000000000000000e+00  2.9883702516752806e-03 -1.2086619860912572e-03 0.0000000000000000e+00  -2.7819110611065120e-04 -3.0299966063842621e-04 0.0000000000000000e+00  2.1822364071257335e-03 2.3488874467489888e-04 0.0000000000000000e+00  2.1916227183209755e-03 -3.8246376617810307e-03 0.0000000000000000e+00  2.0990258897615965e-03 -2.1484353393507762e-04 0.0000000000000000e+00  -1.6622201834682192e-03 3.9981340190994158e-04 0.0000000000000000e+00  -1.3044434365436655e-03 -9.2178647338307879e-04 0.0000000000000000e+00  -4.0244981618917151e-04 3.6051863067048902e-04 0.0000000000000000e+00  -1.3306664101631887e-03 1.7303279075697421e-03 0.0000000000000000e+00  1.6933188305013290e-03 -1.0333460971274984e-03 0.0000000000000000e+00  -2.9111106521059397e-03 6.3113640358245340e-04 0.0000000000000000e+00  -1.1163312892031923e-03 1.0407749664253919e-03 0.0000000000000000e+00  4.1931449710130766e-03 -9.3861333331176039e-04 0.0000000000000000e+00  -4.0804486841051566e-03 9.1282362721333097e-04 0.0000000000000000e+00  6.1092261661339839e-03 -1.1110972932469679e-03 0.0000000000000000e+00  7.7639769558148365e-04 -7.9336055986339686e-04 0.0000000000000000e+00  -2.1281911731017449e-03 -7.0991298866417704e-04 0.0000000000000000e+00  5.3693000264945553e-03 -1.1728298571254871e-05 0.0000000000000000e+00  1.9943538491071081e-04 -4.3753699923532651e-05 0.0000000000000000e+00  2.3737385188326264e-03 -2.1039063879532438e-03 0.0000000000000000e+00  3.9749804056331342e-03 -1.4534347789247918e-03 0.0000000000000000e+00  7.9411207265062117e-05 -4.3233539818679839e-05 0.0000000000000000e+00  -1.5384762543427890e-03 -2.4731607048778361e-04 0.0000000000000000e+00  2.6014971967286723e-03 7.6497288787692546e-04 0.0000000000000000e+00  -2.7786238775219800e-03 2.5863130349433423e-03 0.0000000000000000e+00  1.2561044152720321e-03 1.1981535313108039e-03 0.0000000000000000e+00  -6.9827945303876850e-04 1.3510200392892897e-04 0.0000000000000000e+00  2.0404213318219503e-03 7.9057744093240961e-04 0.0000000000000000e+00  -4.7553321616988005e-04 4.9823857178060889e-04 0.0000000000000000e+00  1.4396823764821181e-04 -5.3832565787231422e-04 0.0000000000000000e+00  -7.9154311192796475e-06 1.7844028666518341e-03 0.0000000000000000e+00  -1.5238291895418277e-03 4.6008099782119218e-04 0.0000000000000000e+00  -4.0238382742441368e-05 8.0734942111370555e-05 0.0000000000000000e+00  -3.6629497186166778e-04 -3.7902673640021590e-05 0.0000000000000000e+00  -1.4520241995588427e-03 4.6064609798336642e-04 0.0000000000000000e+00  -9.3774711491566905e-04 4.0645619827465524e-04 0.0000000000000000e+00  1.7355242757209975e-03 -7.9573458185638944e-04 0.0000000000000000e+00  -2.5047807445898887e-03 5.6191073235869712e-04 0.0000000000000000e+00  2.0515516023824473e-03 1.4530734815138046e-04 0.0000000000000000e+00  3.7579136206955278e-03 -7.4829272237501388e-04 0.0000000000000000e+00  2.5786160839244366e-03 -1.0027095852825105e-03 0.0000000000000000e+00  8.9611912022872879e-03 -1.0845346734965598e-03 0.0000000000000000e+00  7.6868204449192547e-04 -6.8517239607283247e-04 0.0000000000000000e+00  5.0494369205101456e-03 -7.6081584610837648e-04 0.0000000000000000e+00  3.4485123660282899e-04 -1.9631589836589740e-04 0.0000000000000000e+00  2.1862169137028117e-03 -5.2379205910972615e-04 0.0000000000000000e+00  -1.4253096403919380e-05 -2.4757591087791133e-04 0.0000000000000000e+00  -1.2503155104608528e-04 1.0786359852978219e-03 0.0000000000000000e+00  -1.1796382341315334e-03 -9.5813577327082420e-05 0.0000000000000000e+00  1.1083551785643806e-03 -2.6134794284027888e-04 0.0000000000000000e+00  3.6242784900225231e-04 -5.5052197384602140e-04 0.0000000000000000e+00  8.1948920806940813e-04 9.0232160300891340e-04 0.0000000000000000e+00  4.4588534584597897e-03 -2.3802003776936501e-03 0.0000000000000000e+00  8.8094656417501060e-04 -1.8560909493477093e-03 0.0000000000000000e+00  1.9948268662409322e-03 -2.3434328216786256e-03 0.0000000000000000e+00  -3.2322662914303752e-03 5.7811664389012286e-03 0.0000000000000000e+00  1.8874178451097585e-04 -6.6987003190625702e-07 0.0000000000000000e+00  2.6321249868266415e-04 -1.4421450507287647e-04 0.0000000000000000e+00  -2.5820679796568101e-03 3.3825322565365873e-03 0.0000000000000000e+00  1.0073393703403566e-03 7.3886193521009280e-05 0.0000000000000000e+00  8.6302016260434610e-05 1.9907955581057357e-04 0.0000000000000000e+00  5.3195770792121254e-03 -4.9550679828451341e-04 0.0000000000000000e+00  7.6493859953213883e-04 -2.9292258477069174e-03 0.0000000000000000e+00  1.1308737523287569e-03 -1.1207727870006651e-03 0.0000000000000000e+00  -1.0718222251126987e-03 -3.4128687469831118e-04 0.0000000000000000e+00  -3.1984841036910005e-04 -4.2052843068514350e-05 0.0000000000000000e+00  2.7571729631201609e-03 5.5769547484812553e-04 0.0000000000000000e+00  1.8552045962822637e-04 -9.1852375038794726e-05 0.0000000000000000e+00  -5.4148781656301816e-04 -4.4323051734290752e-04 0.0000000000000000e+00  9.5838881941028768e-04 -7.1138797693615519e-04 0.0000000000000000e+00  -1.6045643824488063e-03 1.5050225135422981e-04 0.0000000000000000e+00  6.7629006402196169e-05 8.2783742512205539e-05 0.0000000000000000e+00  2.9556577553721319e-04 4.6527201064227900e-06 0.0000000000000000e+00  3.9440024816608755e-03 -2.0429478308543630e-03 0.0000000000000000e+00  -1.1391317874676846e-03 -2.1284092266695052e-03 0.0000000000000000e+00  -2.8075234495567583e-03 2.5226685347580979e-06 0.0000000000000000e+00  7.8030859145661888e-04 -1.1370480481032838e-03 0.0000000000000000e+00  -9.2592960862119763e-04 8.0463376494277765e-04 0.0000000000000000e+00  4.5485797955063421e-04 -3.4141015245431539e-04 0.0000000000000000e+00  -1.1137756348956094e-03 -3.1993864891297302e-04 0.0000000000000000e+00  -7.2094420707895528e-04 9.8621028338471533e-05 0.0000000000000000e+00  9.5243251389560577e-04 -3.2983563266875707e-04 0.0000000000000000e+00  1.4592109930572188e-03 -1.0533347030916296e-03 0.0000000000000000e+00  2.4668452301991424e-03 -9.6525273980425800e-04 0.0000000000000000e+00  8.8810061404039997e-04 -1.9342275079855268e-04 0.0000000000000000e+00  1.6847046054278714e-05 -7.4788335547915154e-05 0.0000000000000000e+00  1.7947940373629547e-03 -5.5077300637326992e-05 0.0000000000000000e+00  2.2527280871707927e-04 -2.3298828368471656e-05 0.0000000000000000e+00  1.5158080779263583e-03 7.0123317915086851e-04 0.0000000000000000e+00  9.4176150740202203e-04 -7.2236497880185876e-04 0.0000000000000000e+00  -1.8946482724548006e-03 1.6369452339787651e-03 0.0000000000000000e+00  -3.4151107310531024e-03 6.1906650042589488e-04 0.0000000000000000e+00  -4.4051072493457002e-04 1.0563478941220529e-03 0.0000000000000000e+00  -2.3023714982699978e-03 -4.6200039741311545e-04 0.0000000000000000e+00  -3.4989509516053177e-04 -3.8655829433753845e-04 0.0000000000000000e+00  7.3352951641257060e-04 -5.1796124742108985e-04 0.0000000000000000e+00  4.5291874163561475e-04 -2.4154141669587186e-04 0.0000000000000000e+00  -2.0106443107911756e-03 -7.6842949184604344e-04 0.0000000000000000e+00  -1.0019898577429776e-03 1.1341447194105302e-03 0.0000000000000000e+00  -1.3407504071302546e-03 1.4838697040941927e-03 0.0000000000000000e+00  5.2894001358280175e-04 -5.5658802055896556e-04 0.0000000000000000e+00  -3.3779221200451628e-03 6.8472555900008295e-04 0.0000000000000000e+00  -3.3607775489403256e-03 2.0244438306014269e-03 0.0000000000000000e+00  -1.5916177977813688e-03 1.8500812910938931e-03 0.0000000000000000e+00  7.3234752282319484e-04 -3.9668009716522644e-04 0.0000000000000000e+00  9.4217977771006824e-04 1.8123443545011335e-03 0.0000000000000000e+00  -3.7785505826125180e-04 1.2979827337963625e-03 0.0000000000000000e+00  4.1436774456530857e-03 -1.5829668485786883e-03 0.0000000000000000e+00  -6.8104489642333119e-05 -5.4702347067996053e-05 0.0000000000000000e+00  4.3061293559075773e-04 -1.6066627249842202e-03 0.0000000000000000e+00  -3.4413613948505320e-03 8.7694837499815818e-04 0.0000000000000000e+00  -2.6452787304287050e-03 1.2162167681389145e-03 0.0000000000000000e+00  -3.7664617192816642e-03 1.5143575603737188e-03 0.0000000000000000e+00  -1.0658142584568518e-03 3.3140428308750850e-04 0.0000000000000000e+00  1.3841155725050241e-03 6.9611844779978002e-04 0.0000000000000000e+00  -8.8423573179937883e-05 6.8543358964804333e-04 0.0000000000000000e+00  -1.0195808881435064e-03 2.7926444101986249e-04 0.0000000000000000e+00  -4.7137568929886398e-04 2.5447230269586929e-04 0.0000000000000000e+00  -3.0376096911369926e-04 -1.0504681011254497e-03 0.0000000000000000e+00  -1.0045425469745906e-03 -2.6002738942247660e-04 0.0000000000000000e+00  1.4184542776849844e-03 2.3847252561428802e-03 0.0000000000000000e+00  8.7348094219622755e-04 5.9028318279946132e-05 0.0000000000000000e+00  -2.1481090121362950e-04 -5.5644319618401196e-04 0.0000000000000000e+00  -3.9774351310765797e-04 9.7808435492396017e-04 0.0000000000000000e+00  3.1179485996136475e-03 -1.2483698795917448e-03 0.0000000000000000e+00  -1.0727288951910535e-03 -9.6445678986298452e-04 0.0000000000000000e+00  -1.6468