<?xml version="1.0"?>
<VTKFile type="UnstructuredGrid"  version="0.1"  >
<UnstructuredGrid>
<Piece  NumberOfPoints="1385" NumberOfCells="2640">
<Points>
<DataArray  type="Float64"  NumberOfComponents="3"  format="ascii">0 0 0  1 0 0  1 1 0  0 1 0  0.5 0 0  1 0.5 0  0.5 1 0  0 0.5 0  0.5 0.5 0  0 0.25 0  0.25 0 0  0.25 1 0  0 0.75 0  1 0.25 0  0.75 0 0  1 0.75 0  0.75 1 0  0.7083333333333333 0.2916666666666667 0  0.2916666666666666 0.7083333333333334 0  0.375 0.25 0  0.75 0.625 0  0.2569444444444444 0.4652777777777778 0  0.5366379310344828 0.7535919540229885 0  0.1875 0.1875 0  0.8125 0.8125 0  0.869047619047619 0.375 0  0.1450441919191919 0.6052714646464646 0  0.375 0.8690476190476191 0  0.5526960784313725 0.1825980392156862 0  0.8385416666666666 0.1614583333333334 0  0.1614583333333333 0.8385416666666667 0  0.6736111111111112 0.4652777777777778 0  0.1367521367521368 0.3477564102564102 0  0.6570970491253563 0.8648656830417855 0  0.5102479397556124 0.3386260301221938 0  0.3654513888888889 0.5737847222222222 0  0.6929750044954185 0.1362784921584263 0  0.388576102743835 0.411911725237599 0  0.6091269841269842 0.5942460317460317 0  0.875 0.6875 0  0.427278890279516 0.119889445139758 0  0.8544456845238095 0.5213913690476191 0  0.125 0 0  0 0.125 0  1 0.875 0  0.875 1 0  0.1280008648150532 0.4769292340226777 0  0.2695382451711197 0.3321750950221553 0  0.7031567235715964 0.7447810921428012 0  0.625 0 0  0.375 0 0  0.125 1 0  0.875 0 0  0 0.375 0  0 0.625 0  1 0.375 0  0.375 1 0  1 0.125 0  0 0.875 0  0.625 1 0  1 0.625 0  0.2979288363930608 0.1201429454643536 0  0.410919540229885 0.7484605911330049 0  0.5325041980395562 0.878905151526474 0  0.4831670727569156 0.6331060043826487 0  0.1735997378973042 0.7204747378973043 0  0.2534919507575758 0.5772372159090909 0  0.2633928571428572 0.8876488095238095 0  0.8199404761904761 0.2730654761904762 0  0.75830270586982 0.3919383189517417 0  0.5750282248382511 0.4237522353023667 0  0.6008360210023379 0.2794828358598495 0  0.08163442644334186 0.6821295860397322 0  0.08333333333333333 0.1875 0  0.2028380815996574 0.08844602719988583 0  0.2766521142611967 0.2325436572164097 0  0.90625 0.78125 0  0.890625 0.890625 0  0.7545696325008384 0.8973565441669461 0  0.5625 0.08086590340834317 0  0.09077380952380953 0.09077380952380952 0  0.4610923478694773 0.209034015149656 0  0.7542527598351648 0.5248380520595106 0  0.6459235536037465 0.3619913988405765 0  0.7560381768882634 0.20506142233852 0  0.07073252688172042 0.8125 0  0.0924753097241701 0.9078102849914793 0  0.9292674731182795 0.1875 0  0.9075246902758297 0.09218971500852073 0  0.8125 0.07073252688172045 0  0.2400955776842301 0.7869705776842302 0  0.9121050213379069 0.2781978201831695 0  0.7916878157143976 0.7239689078571988 0  0.9345238095238094 0.4375 0  0.4375 0.9345238095238095 0  0.3725616989755203 0.6651895248862173 0  0.06536271996350887 0.5625 0  0.9348362560379583 0.5625 0  0.456646798987055 0.8277247094351965 0  0.1875 0.9355758238725954 0  0.6169761231634859 0.6939779188977889 0  0.6226854751147515 0.7827911461419014 0  0.3305695598137626 0.7901697871282585 0  0.5865305325818898 0.5101085479043448 0  0.6622701297028378 0.2177663989757395 0  0.1354166666666667 0.2591702279202279 0  0 0.3125 0  0.2094429575680048 0.3936361846162499 0  0.836666296419157 0.607917407161686 0  0.6875 1 0  0.214261555450504 0.6492551722020035 0  0 0.4375 0  0.07731537126068377 0.40625 0  0.3427725432967068 0.4879566233699599 0  0.3550792513951871 0.3331953632609953 0  0.4462473953896857 0.2887834789342508 0  0.4747801464819794 0.417386052030127 0  0.8229836475148948 0.4443292349237342 0  0.7322605135514757 0.8199240278289671 0  0.6756431877205955 0.5468989748126787 0  0.1968419507215863 0.5194573482612496 0  0.3285590277777778 0.9345238095238095 0  0.8125 1 0  0.4198917601920009 0.5134893045331258 0  0.5232405503206691 0.2595791787880157 0  1 0.9375 0  0.1987510870015086 0.3025185951894431 0  0.5625 1 0  0.6005390654136388 0.9228110509230952 0  0.6411254848194414 0.07704872765442942 0  0.3357233162523242 0.1855113224530532 0  0.6730653396610877 0.6393887462324165 0  0.310966987234063 0.6240019765311626 0  0.7368737836204349 0.07457755202327881 0  0.6192316414418171 0.1485238406378594 0  0.5432429670607106 0.678552703844006 0  0.4754371679695679 0.7103946803120881 0  0.07501324890749672 0.3043839897335739 0  0.5358146975860403 0.5688321463205916 0  0.3115271739500156 0.3982137365971444 0  0.3625191397122174 0.0767854603650549 0  0.5024029442563831 0.1264128223758444 0  0.4375 0 0  0.4699946908887376 0.06379961173775725 0  0.9375 0.71875 0  0.9272105898044465 0.635671179608893 0  0.9375 1 0  0.6690971819568612 0.9331530898202766 0  0.1073454944778885 0.7499206387638554 0  0.8699082999280406 0.2232403652524313 0  0.5773118091863964 0.3548027349159383 0  0.1354166666666667 0.1428571428571428 0  0.3125 0 0  0.8241684193077341 0.9257452995055244 0  0.4352314948354036 0.3586940847489378 0  0.4351301473778832 0.5819726043539077 0  0.8073232928518163 0.3419398170341962 0  0.7775949246947366 0.1298519409204575 0  0.6875 0 0  0.7413513991851041 0.457933324954483 0  0.939453125 0.841796875 0  0.5630355154606987 0.8171875156478349 0  0.9345238095238095 0.3461466592368577 0  0.9375 0 0  1 0.0625 0  0.0625 1 0  0 0.9375 0  0.06552178593177167 0.4969053669623468 0  0.1424866619031703 0.4130277709291224 0  0.1275287182444726 0.5422946908002588 0  0.2637686595586339 0.06413888464529549 0  0.2524263535491086 0.1697437503243817 0  0.7367218397988525 0.6888573970660841 0  0.0625 0 0  0 0.0625 0  0.8463594539285995 0.7578283617857982 0  0.3128751192101563 0.2851997374369947 0  0.4015281788351144 0.1806421385113692 0  0.1910251795116588 0.4553332197174453 0  0.287797471442006 0.5222621440543902 0  0.3962628745986055 0.8097380085535307 0  0.3505895299554843 0.7304878890838692 0  0.5019151500495276 0.9356042615328103 0  0.9374389419410134 0.4999931039076005 0  0.3125 1 0  0.1875 1 0  1 0.5625 0  0.4375 1 0  1 0.3125 0  1 0.4375 0  0.8125 0 0  1 0.1875 0  0.5625 0 0  0.1875 0 0  0 0.1875 0  0 0.5625 0  0 0.6875 0  0 0.8125 0  1 0.6875 0  1 0.8125 0  0.8021696218581627 0.6612893947866073 0  0.06154922295426143 0.6239401126946708 0  0.9359375 0.9359375 0  0.4666158024849896 0.7691515918155014 0  0.2318201265217025 0.7064974250277525 0  0.1565954253579966 0.6635489312486841 0  0.1598132503680848 0.7787147500325552 0  0.3146529991605639 0.8510876378205265 0  0.1461873209418733 0.05982804528877814 0  0.06109554988524315 0.2446551776247686 0  0.8054950308560754 0.5564226538848541 0  0.470541749491976 0.8853316336952531 0  0.6948472567465137 0.4042308563372457 0  0.8802828472348889 0.4658893256343853 0  0.6788075634946739 0.7974194205806069 0  0.2155048659603867 0.2428201584940968 0  0.8131223143423806 0.2132171049028394 0  0.4330798005432235 0.6671274900735726 0  0.6015279126162613 0.2187368078743274 0  0.8061636571464289 0.8703766630361714 0  0.7008230445061776 0.3478568388444072 0  0.8638466246958771 0.3147095987735538 0  0.204801534004265 0.8789209409594009 0  0.2449006736431132 0.9424182882803838 0  0.7611268409371427 0.2643056884799992 0  0.7552800864046191 0.7678006649959446 0  0.5983639638906616 0.864113435029236 0  0.1956559506814437 0.577281203577426 0  0.3527670268164207 0.1320469097565204 0  0.7530364577483248 0.3262386077083089 0  0.4535919187979363 0.4690107087451527 0  0.8824869791666666 0.8336588541666666 0  0.8814453125 0.9451171875 0  0.5582987942628019 0.622421666543858 0  0.6817532446064828 0.6939001801354731 0  0.3830295138888889 0.9450968952922078 0  0.4140603937012541 0.05211333372716105 0  0.5535864501303013 0.3060591985391672 0  0.6560130086346878 0.2729726562211558 0  0.890203140221684 0.5948314305427268 0  0.7043857725999024 0.593980890020804 0  0.5105843922695152 0.8016828014338627 0  0.05365910753708378 0.7315110031682004 0  0.616904573672261 0.4621186633436136 0  0.5338511646455415 0.387875898899613 0  0.5231769258947843 0.4477682463140762 0  0.650302973237622 0.7370722302085519 0  0.3927483139621257 0.4662414504529014 0  0.8034595960585199 0.4972538342758211 0  0.7738337841682438 0.9496376207663251 0  0.7193737507158268 0.954685447650112 0  0.482525916480686 0.5528257169991676 0  0.2533501157346781 0.2809495420003238 0  0.3118487924482243 0.5702930126570319 0  0.6257598847669529 0.4104163315430518 0  0.1354166666666667 0.1955605158730158 0  0.04166666666666666 0.15625 0  0.3956448985530264 0.6174149462065157 0  0.8102897701818546 0.3938784238208349 0  0.2641154190013625 0.8344469561943118 0  0.642852220770013 0.5068794586563659 0  0.05271458179508221 0.355846947336007 0  0.7021551360070266 0.8921457280225779 0  0.5692125776683765 0.1328512638850284 0  0.5206162811937602 0.04865158770992991 0  0.6001838442201555 0.04540556991297563 0  0.2597716608242787 0.4118346398477178 0  0.4040584599473195 0.3179589136784675 0  0.1480337679295207 0.8941560631483065 0  0.1344356707112281 0.9466251177415842 0  0.7114696411829317 0.4983917389078826 0  0.7585704698442475 0.5751926345944629 0  0.2189131956390871 0.04022068508159698 0  0.2476935455192043 0.1123642267635843 0  0.185995005654517 0.1365524537205238 0  0.6223414373308711 0.643380839165121 0  0.5732602596637543 0.7190051747306219 0  0.268358222364537 0.6586246524467934 0  0.3265879848129173 0.2369791782191225 0  0.1267095595787346 0.7034787238999181 0  0.1115202922226038 0.6421997933884982 0  0.3128688392940203 0.07260997451790079 0  0.550724900485678 0.9253360991633187 0  0.7142608810459105 0.2384904702214873 0  0.7045869185243887 0.1871826897887429 0  0.890625 0.734375 0  0.953125 0.765625 0  0.2111812642821677 0.8286209446459138 0  0.9590293078204457 0.09375 0  0.953431269039847 0.1435719386408004 0  0.04097069217955424 0.90625 0  0.04656873096015299 0.8564280613591996 0  0.1078743037981226 0.8541621766048062 0  0.8921256962018773 0.1458378233951939 0  0.8521576979194619 0.1084496634207678 0  0.8655663982740958 0.05464346096571447 0  0.04005659640905543 0.09375 0  0.1001448316533417 0.04246776244228261 
[...]
<PointData  Vectors="f_9554-1"> 
<DataArray  type="Float64"  Name="f_9554-1"  NumberOfComponents="3" format="ascii">4.9918854090712089e-03 8.3986285365932594e-03 0.0000000000000000e+00  -1.0337588765561110e-03 1.8885742069814115e-03 0.0000000000000000e+00  1.0928319738094325e-04 3.4571782466085521e-03 0.0000000000000000e+00  -2.2197898941365979e-04 -2.8169190866245567e-03 0.0000000000000000e+00  -2.5428880006575835e-03 4.0730501667330006e-03 0.0000000000000000e+00  6.5914744980739132e-04 1.0266153924116479e-03 0.0000000000000000e+00  -7.5753389105700912e-05 1.2595682787976184e-03 0.0000000000000000e+00  -1.0726412360199632e-03 2.6211173857727727e-03 0.0000000000000000e+00  1.1700324716441759e-04 4.7327736769634974e-04 0.0000000000000000e+00  -1.2975693722361097e-03 5.1012786835691638e-03 0.0000000000000000e+00  -3.6573566923465486e-03 5.6306432950385061e-03 0.0000000000000000e+00  8.7574339333602695e-04 -4.3289816982144242e-04 0.0000000000000000e+00  7.2152182323552113e-05 1.2169651436304259e-03 0.0000000000000000e+00  3.5227313468532578e-04 -4.2614203766442400e-04 0.0000000000000000e+00  -8.8896811390263989e-04 3.1208997776402273e-03 0.0000000000000000e+00  -1.0204636276720132e-04 1.7659072314341587e-03 0.0000000000000000e+00  -1.4562689080595371e-04 2.1547710510834016e-03 0.0000000000000000e+00  -5.3593446269204132e-04 2.0415818455301422e-03 0.0000000000000000e+00  -1.2345801675402953e-03 3.0452144003069665e-03 0.0000000000000000e+00  1.9109819783970630e-03 -1.1226283878684553e-03 0.0000000000000000e+00  2.0158307926267821e-04 4.0290412587397502e-04 0.0000000000000000e+00  2.8711819677099040e-03 -6.1060165416868322e-03 0.0000000000000000e+00  -4.1425105573327707e-04 1.3545440582656155e-03 0.0000000000000000e+00  2.1918675188624406e-04 -3.1194288117334856e-03 0.0000000000000000e+00  -1.9467315960732380e-04 1.1172828985606710e-03 0.0000000000000000e+00  -1.9807961757938982e-04 1.0112082178631977e-03 0.0000000000000000e+00  2.7467419464656946e-04 -2.6976148851579041e-03 0.0000000000000000e+00  -1.2105205723258333e-03 1.7397869621319719e-03 0.0000000000000000e+00  -3.1388351746385241e-04 1.2366341240870968e-03 0.0000000000000000e+00  6.0453586062833651e-04 2.7149026848149894e-03 0.0000000000000000e+00  -3.7398526022518154e-04 1.2944789774466911e-04 0.0000000000000000e+00  2.0132386346611301e-04 3.0534155043555372e-03 0.0000000000000000e+00  5.2644616186688423e-04 1.8684584928827181e-03 0.0000000000000000e+00  -5.3960504750851716e-05 1.5936703064779196e-03 0.0000000000000000e+00  1.8352010293867912e-04 -1.1539686197936513e-03 0.0000000000000000e+00  -1.1341237370341693e-03 3.4849201034878072e-03 0.0000000000000000e+00  -1.8004407676110896e-03 -3.2230679602491298e-03 0.0000000000000000e+00  -1.2258702344572544e-03 1.3649016179240994e-03 0.0000000000000000e+00  7.5293849339456390e-04 2.9109177723134344e-03 0.0000000000000000e+00  -9.7550345931478842e-05 1.1765961387945221e-03 0.0000000000000000e+00  -1.0691018087067683e-03 5.0438002216117777e-03 0.0000000000000000e+00  2.4279730445224331e-04 1.6569196117956959e-03 0.0000000000000000e+00  -1.7826826998844107e-03 4.5210707082408612e-03 0.0000000000000000e+00  1.4481318810176296e-03 -1.7627022969341751e-03 0.0000000000000000e+00  4.1791221185979776e-05 2.0500348588308359e-03 0.0000000000000000e+00  -6.4179502477082592e-04 2.8573771196397663e-03 0.0000000000000000e+00  -7.2559136198348001e-04 4.0612821458513488e-04 0.0000000000000000e+00  2.9140015848282759e-03 9.0186310919398126e-04 0.0000000000000000e+00  3.0590120147927627e-04 1.0104877422981240e-03 0.0000000000000000e+00  -9.6640599817055667e-05 6.1547437964591832e-03 0.0000000000000000e+00  -1.0716372238214597e-03 2.1222811689447299e-03 0.0000000000000000e+00  5.9393373765442067e-04 -2.4231114649969784e-04 0.0000000000000000e+00  -5.6580784106148748e-04 2.5180846581907171e-03 0.0000000000000000e+00  4.8688012453973386e-04 4.0703345598904449e-03 0.0000000000000000e+00  -2.5680955466310948e-04 5.6240834001171167e-03 0.0000000000000000e+00  8.4356572783017905e-05 2.6046117184470874e-04 0.0000000000000000e+00  3.9245354287308673e-04 -7.6828877917128500e-04 0.0000000000000000e+00  8.3760087695247535e-04 -3.9102177104063691e-04 0.0000000000000000e+00  -7.1651893208607626e-04 2.4637485895399719e-03 0.0000000000000000e+00  6.5529002551254281e-05 1.7474333499141841e-03 0.0000000000000000e+00  -1.1645077927502335e-04 1.2091814462208490e-03 0.0000000000000000e+00  -3.0462434772699771e-03 4.5567461685138734e-03 0.0000000000000000e+00  1.1876098999311310e-03 -7.6483207315536437e-04 0.0000000000000000e+00  3.5128021268176509e-04 1.1821261442558472e-03 0.0000000000000000e+00  5.0867857155957390e-04 -1.7517820203058533e-03 0.0000000000000000e+00  -9.4611085164484135e-04 3.0470981706471720e-03 0.0000000000000000e+00  1.1705165580116377e-04 2.0620913298700799e-03 0.0000000000000000e+00  1.6675944788608890e-03 -1.5087514759256431e-03 0.0000000000000000e+00  1.5131866116739368e-04 -3.0275262470916826e-03 0.0000000000000000e+00  -1.9738125952284791e-03 1.1518921981725769e-03 0.0000000000000000e+00  -1.4409552148620087e-03 1.5738377367143009e-03 0.0000000000000000e+00  -9.0090939544935824e-04 2.0827949536849403e-03 0.0000000000000000e+00  -1.7336038763561871e-04 -2.2116296529197154e-03 0.0000000000000000e+00  3.6487263989637528e-04 -1.1265605546799508e-03 0.0000000000000000e+00  -6.0814746959340037e-04 -8.1278603552753879e-03 0.0000000000000000e+00  -1.6997324499634350e-03 4.1379721099909081e-03 0.0000000000000000e+00  -1.1696378487487913e-04 5.6412185173751244e-04 0.0000000000000000e+00  -6.0573817120627635e-05 2.5511770709713086e-03 0.0000000000000000e+00  -1.0386207255541891e-04 8.3430818018832115e-04 0.0000000000000000e+00  7.6273749028223613e-04 -2.6462393618964758e-03 0.0000000000000000e+00  -1.0286040370899444e-03 7.9010771370916421e-04 0.0000000000000000e+00  8.5013419678485642e-04 -1.4647119785446577e-03 0.0000000000000000e+00  -2.4478918563179458e-04 2.2022007950456305e-03 0.0000000000000000e+00  4.7679509074638601e-04 1.5552025030063561e-03 0.0000000000000000e+00  -6.9248611699058646e-05 1.1136448984002236e-03 0.0000000000000000e+00  -1.3444582824763342e-03 7.3915213079341221e-04 0.0000000000000000e+00  1.1032004343460148e-03 -1.3845119398719562e-03 0.0000000000000000e+00  -2.7399255728380642e-04 1.8506068001671184e-03 0.0000000000000000e+00  1.1495617481382589e-03 -9.8912656516504378e-04 0.0000000000000000e+00  -1.4525666269509627e-03 7.5984352692839920e-04 0.0000000000000000e+00  9.8094104025768666e-04 -1.7628526117946651e-03 0.0000000000000000e+00  1.3982070557637071e-03 1.1561490996963293e-03 0.0000000000000000e+00  5.0175671009126260e-07 1.1758455798101084e-03 0.0000000000000000e+00  -4.6670804084581493e-04 9.5951908667462693e-04 0.0000000000000000e+00  -4.9379440934604294e-04 1.2415561100498423e-03 0.0000000000000000e+00  3.2023279179323942e-04 -1.0975603415976840e-03 0.0000000000000000e+00  -8.6502793283521357e-06 -4.4996680756201205e-03 0.0000000000000000e+00  -4.0328190598415534e-04 9.0140812546137222e-04 0.0000000000000000e+00  -6.9519395211799597e-04 8.0177942671275776e-04 0.0000000000000000e+00  -2.9098171873202360e-04 7.0210261056851211e-04 0.0000000000000000e+00  1.0767074049056258e-04 1.9009625985939287e-03 0.0000000000000000e+00  -1.4652290929616327e-04 -1.6061464211093954e-04 0.0000000000000000e+00  -4.2148713748668584e-04 2.0457106702168916e-03 0.0000000000000000e+00  -4.6430981093202519e-04 2.4665857513370762e-03 0.0000000000000000e+00  1.3031197997786085e-03 5.0733896507657418e-04 0.0000000000000000e+00  4.2756447955198077e-04 2.7793085133995515e-03 0.0000000000000000e+00  -1.2548190774413800e-03 2.3134784949991926e-03 0.0000000000000000e+00  -1.2436558377649015e-03 3.7111828991794769e-03 0.0000000000000000e+00  -2.0362811329079181e-04 1.5740245359455124e-03 0.0000000000000000e+00  -2.2119354147474065e-04 1.6835060969352402e-03 0.0000000000000000e+00  1.1001571870587399e-03 1.3320660011672961e-04 0.0000000000000000e+00  3.5601929808419660e-03 -5.3262198560422307e-04 0.0000000000000000e+00  -2.0480211986872556e-03 4.4714177267118809e-03 0.0000000000000000e+00  -5.2052617502568491e-04 -3.8651193494021290e-03 0.0000000000000000e+00  -1.9253027194167849e-03 -5.8444739076432539e-04 0.0000000000000000e+00  -5.8181499272083278e-04 -5.5135396024300369e-04 0.0000000000000000e+00  7.5774448994255352e-04 5.5559801758321538e-03 0.0000000000000000e+00  -2.0549978216588950e-04 -6.1761071715731725e-04 0.0000000000000000e+00  -2.0759300275471990e-05 1.3125943439602481e-03 0.0000000000000000e+00  -8.9596718828554483e-04 2.1374375308363183e-03 0.0000000000000000e+00  -1.9097280665672635e-03 4.3794266510512969e-04 0.0000000000000000e+00  3.4814268612050141e-04 1.0163017449941027e-04 0.0000000000000000e+00  -3.3632360277795887e-04 3.3606936441684014e-03 0.0000000000000000e+00  -3.7327644449059789e-04 1.7431176660662705e-04 0.0000000000000000e+00  2.4041000660020876e-03 -2.4963769202912996e-03 0.0000000000000000e+00  5.6203788358771931e-05 2.7980392404833043e-03 0.0000000000000000e+00  -1.1350833586140363e-03 6.4894282014431922e-04 0.0000000000000000e+00  2.5919927379881235e-05 1.3121628347230550e-03 0.0000000000000000e+00  2.1902132257229983e-06 1.2968843501621648e-03 0.0000000000000000e+00  -1.4831034924532548e-03 1.7362656745896674e-03 0.0000000000000000e+00  1.7143331819592543e-03 -1.4213465431500197e-03 0.0000000000000000e+00  -3.4950749707623248e-05 3.7366452865350628e-04 0.0000000000000000e+00  4.7974883784550489e-04 -1.0615438790396521e-03 0.0000000000000000e+00  -5.9908339538942371e-04 4.0185098957939416e-03 0.0000000000000000e+00  -4.3013552291848826e-03 2.1749221226266221e-03 0.0000000000000000e+00  -6.9751646858989900e-04 2.3278229045370666e-03 0.0000000000000000e+00  -1.4608200597677494e-04 4.0509949129936464e-03 0.0000000000000000e+00  -6.1129473819968169e-04 3.7138384776162071e-03 0.0000000000000000e+00  -3.4639697857387906e-04 -2.7170249279731703e-04 0.0000000000000000e+00  -1.4490616508179522e-04 3.0594448670634199e-03 0.0000000000000000e+00  3.2185946976390511e-03 6.0061774598949697e-04 0.0000000000000000e+00  -7.7628246278816217e-04 -6.9769734335519546e-04 0.0000000000000000e+00  -1.7080919303230123e-03 5.9900259001550099e-03 0.0000000000000000e+00  5.8131621320211182e-03 -3.1424380100717820e-03 0.0000000000000000e+00  -6.7669418679841073e-06 1.4461867401586428e-03 0.0000000000000000e+00  1.5118700708922661e-06 1.1209475463215069e-03 0.0000000000000000e+00  -4.1999437333492789e-04 4.3059747786300612e-03 0.0000000000000000e+00  4.0187350712540728e-05 1.1299533092455907e-03 0.0000000000000000e+00  2.5107732427272211e-03 -2.5473984276442843e-03 0.0000000000000000e+00  2.2890846304975854e-03 -2.7152121561688034e-03 0.0000000000000000e+00  -9.1748778740430542e-05 3.9285631630201672e-03 0.0000000000000000e+00  -2.1584697981559074e-03 4.9120675902922049e-03 0.0000000000000000e+00  -1.3006702393177118e-03 6.7577497644466869e-03 0.0000000000000000e+00  2.5333648426301489e-04 2.0771878254325963e-03 0.0000000000000000e+00  -5.4799337031397792e-03 6.5945959135289009e-04 0.0000000000000000e+00  -3.9136342189001537e-04 1.0030621290562387e-03 0.0000000000000000e+00  -2.3802174522717045e-05 1.9571605004545679e-03 0.0000000000000000e+00  -9.4653477820806587e-04 1.4894924636656628e-03 0.0000000000000000e+00  9.9932210620451846e-04 5.6145179401197436e-03 0.0000000000000000e+00  -3.8107509757049170e-04 -2.3807147813931120e-04 0.0000000000000000e+00  3.6032089834138383e-04 7.6967290149982217e-04 0.0000000000000000e+00  1.9634782996041938e-04 6.7469213863974135e-04 0.0000000000000000e+00  5.5358719224632067e-04 -4.6030009882146367e-04 0.0000000000000000e+00  -8.8890403611523476e-04 2.0793655059838231e-03 0.0000000000000000e+00  1.0949019578892472e-03 -1.5668701965324795e-03 0.0000000000000000e+00  1.0801620492336792e-03 -5.6050810930297415e-04 0.0000000000000000e+00  1.2991005851226579e-03 1.6374563220207926e-04 0.0000000000000000e+00  7.2066193668475324e-03 2.0414148331072534e-03 0.0000000000000000e+00  4.4672077590087646e-03 -3.5282152194776686e-03 0.0000000000000000e+00  2.1123611824175950e-03 -5.0131424191726245e-03 0.0000000000000000e+00  -1.7000500446313928e-03 3.2873727656107347e-03 0.0000000000000000e+00  -1.1978804711501221e-04 5.7915028846545853e-03 0.0000000000000000e+00  3.0215256525885500e-04 1.8735639571069115e-03 0.0000000000000000e+00  -1.6209880543789031e-03 4.3399642002040894e-03 0.0000000000000000e+00  2.5354224297412594e-03 -8.4088390068767479e-04 0.0000000000000000e+00  -8.0903397807601321e-05 1.3099653355587882e-03 0.0000000000000000e+00  1.1131650349307889e-03 -7.0333985525452289e-04 0.0000000000000000e+00  7.1061609205357078e-04 1.9632350447276346e-03 0.0000000000000000e+00  2.4175627786124226e-03 -2.0186050680531839e-03 0.0000000000000000e+00  1.3411653126992238e-03 -2.5663364103343210e-03 0.0000000000000000e+00  8.2445413282463851e-04 1.2752394081824775e-03 0.0000000000000000e+00  -6.6861908649447398e-04 3.5802057513154733e-04 0.0000000000000000e+00  6.2606534607999266e-04 8.4380080760737813e-04 0.0000000000000000e+00  -1.0343173986858341e-04 1.4351659596528957e-03 0.0000000000000000e+00  8.4935304930911372e-04 4.1154729968881734e-05 0.0000000000000000e+00  3.8638361123756882e-04 -2.1055682229549513e-04 0.0000000000000000e+00  -2.4211389588523120e-05 9.8285286413585357e-04 0.0000000000000000e+00  1.3357512477172882e-04 7.7927347280308027e-05 0.0000000000000000e+00  4.4956505475429091e-04 -2.5324711097688562e-05 0.0000000000000000e+00  5.8460140911000414e-04 2.0926716951214853e-04 0.0000000000000000e+00  -5.1932096591231420e-04 3.7934020173998537e-03 0.0000000000000000e+00  8.3177900343879411e-04 -6.9523858767150102e-04 0.0000000000000000e+00  -1.3214514916256178e-03 5.3166070592955018e-03 0.0000000000000000e+00  6.4974116427661717e-04 7.5964739311045019e-03 0.0000000000000000e+00  -3.3230329712654358e-03 2.0557742789992792e-03 0.0000000000000000e+00  -3.6924212443739906e-04 3.8994225940310115e-03 0.0000000000000000e+00  3.1456071144968538e-03 -9.2051391309804799e-04 0.0000000000000000e+00  -3.3610086216922671e-03 5.6090534453840778e-03 0.0000000000000000e+00  -1.7928017256491503e-04 1.4218572591606516e-03 0.0000000000000000e+00  1.3416798670560170e-04 2.1468636035235997e-03 0.0000000000000000e+00  -7.5685442065716031e-04 1.4705852603805224e-03 0.0000000000000000e+00  1.3962648561150202e-03 -5.2302775618512168e-03 0.0000000000000000e+00  -1.0236267639082263e-04 2.1424288286294780e-04 0.0000000000000000e+00  -5.7329907743171923e-05 2.4816799287506277e-03 0.0000000000000000e+00  -1.3005302077319109e-03 1.5190820066669180e-03 0.0000000000000000e+00  1.8337679103997868e-03 -1.6658729134201096e-03 0.0000000000000000e+00  4.5671536020192981e-04 7.0676503289418741e-04 0.0000000000000000e+00  -9.4565235597813700e-04 1.0629614854132502e-03 0.0000000000000000e+00  -1.2408984580212967e-03 4.1001824215298856e-03 0.0000000000000000e+00  2.8156710754384199e-03 -5.5939773079239567e-04 0.0000000000000000e+00  -2.4750509391457758e-04 1.2878919113837337e-03 0.0000000000000000e+00  -4.8106414316549835e-04 7.3845308031926158e-04 0.0000000000000000e+00  -5.7639765296190067e-04 4.1921965136758697e-03 0.0000000000000000e+00  2.8177788532617298e-04 2.2365136885782850e-03 0.0000000000000000e+00  3.3777995110976112e-04 1.3463725331853754e-03 0.0000000000000000e+00  -1.6241914232593760e-03 3.0155803426416597e-03 0.0000000000000000e+00  -1.1200924771191825e-03 -1.1774987864653550e-03 0.0000000000000000e+00  -1.2424282954044993e-03 9.4183609790369702e-04 0.0000000000000000e+00  -2.8885190341596618e-04 4.3348814064690360e-03 0.0000000000000000e+00  -2.2802596120282867e-04 1.1218804202386627e-03 0.0000000000000000e+00  6.0308120322964752e-04 4.2481432473920116e-03 0.0000000000000000e+00  -6.8383370680112979e-04 1.4752470746379792e-03 0.0000000000000000e+00  -6.5775403476064421e-04 3.6790845091603966e-03 0.0000000000000000e+00  -1.0782610036427726e-03 1.3775819923118619e-03 0.0000000000000000e+00  5.0067323645658314e-04 -2.4419536549551027e-04 0.0000000000000000e+00  -2.5919935360042682e-05 1.2417769356624221e-03 0.0000000000000000e+00  2.0670741597446666e-04 1.0900406121942567e-03 0.0000000000000000e+00  2.3054649728157951e-04 9.7444602643675222e-04 0.0000000000000000e+00  -1.2029470467873346e-03 2.6615653487300460e-03 0.0000000000000000e+00  5.1009743596131310e-04 -2.1969613953824602e-03 0.0000000000000000e+00  -6.8711452647456572e-04 2.0981175526308808e-03 0.0000000000000000e+00  -6.7740325596642067e-06 1.5505106849351715e-03 0.0000000000000000e+00  -1.2901607029749244e-03 3.0493167362822004e-03 0.0000000000000000e+00  1.4770017910800860e-04 -2.0521253118376752e-04 0.0000000000000000e+00  2.1203806641086330e-04 1.2998016402248961e-03 0.0000000000000000e+00  3.2943911544028228e-04 1.5851611684664848e-03 0.0000000000000000e+00  2.8217660141293490e-03 6.9682817010785500e-03 0.0000000000000000e+00  -8.6242669315941670e-04 2.6827683524939063e-03 0.0000000000000000e+00  -8.1718581677279014e-04 -1.7163219374589033e-03 0.0000000000000000e+00  -4.8759867919802134e-05 1.2642953946667011e-03 0.0000000000000000e+00  -5.5167601069403297e-05 2.6256919352474267e-03 0.0000000000000000e+00  -5.1932748546047389e-05 1.6970697945066230e-04 0.0000000000000000e+00  -7.5478726720304824e-04 5.7526126838013808e-04 0.0000000000000000e+00  -1.1753886448593993e-03 1.6512124148979198e-03 0.0000000000000000e+00  6.4125564277592306e-04 -1.7209557696976877e-03 0.0000000000000000e+00  2.7878687404795013e-03 -2.0683651888402893e-03 0.0000000000000000e+00  3.2198459611524163e-04 3.2412382868032288e-04 0.0000000000000000e+00  -3.1475658295776802e-04 5.9023780670619920e-04 0.0000000000000000e+00  -4.4792685851120475e-04 1.3466587700465740e-03 0.0000000000000000e+00  -1.0863725575962027e-04 1.3757611975350771e-03 0.0000000000000000e+00  -1.2169499099369275e-04 1.5058241071922752e-03 0.0000000000000000e+00  -3.1019695401727446e-03 3.5871524146942769e-03 0.0000000000000000e+00  -1.8046564182853352e-03 6.3997240571418666e-03 0.0000000000000000e+00  -1.8066186567667917e-04 -2.8495726743661669e-03 0.0000000000000000e+00  -1.7821996275415577e-03 3.7386198945565953e-03 0.0000000000000000e+00  -1.0544161155693011e-05 -5.1387132057613381e-03 0.0000000000000000e+00  4.4924941182384595e-03 -4.2213079780179658e-03 0.0000000000000000e+00  6.5603452071722498e-04 1.8781506891199496e-03 0.0000000000000000e+00  -1.0514561222428685e-04 9.7460113495035402e-04 0.0000000000000000e+00  1.0400279439833620e-03 -1.7875257740574291e-04 0.0000000000000000e+00  2.5466279486186937e-04 -1.5099647820398252e-03 0.0000000000000000e+00  -1.8227413155715165e-03 1.9417137940579369e-03 0.0000000000000000e+00  -8.2144863132830323e-05 1.3727890761365870e-03 0.0000000000000000e+00  -5.6413954897964404e-04 -4.4760744949056417e-03 0.0000000000000000e+00  3.5194208947498013e-03 -6.9634194377723367e-06 0.0000000000000000e+00  -6.2111198060779693e-05 -1.8423174466810906e-03 0.0000000000000000e+00  1.5482504031387912e-03 -6.5874181908310483e-03 0.0000000000000000e+00  7.4362299317684609e-04 1.5059970398730660e-03 0.0000000000000000e+00  -3.6757070202490859e-04 3.4353347808000929e-03 0.0000000000000000e+00  5.2797759153556652e-04 -2.3348174329940446e-04 0.0000000000000000e+00  1.9108483863634622e-03 5.8891896437098792e-04 0.0000000000000000e+00  -4.2568971544654612e-05 2.2626227038278915e-04 0.0000000000000000e+00  -3.3235032425809850e-03 6.8210439014822471e-03 0.0000000000000000e+00  1.2007808200116673e-04 3.4082493816298205e-03 0.0000000000000000e+00  1.3004111829919862e-03 7.5538710333844187e-03 0.0000000000000000e+00  1.2065610420756150e-04 1.8395773798662385e-04 0.0000000000000000e+00  8.3660203792998287e-05 1.2509556187807404e-03 0.0000000000000000e+00  1.5856604453722513e-03 -3.8378434289786762e-04 0.0000000000000000e+00  1.5638036190952038e-07 2.8998901050808642e-05 0.0000000000000000e+00  -1.9230994946071024e-04 1.1914068808207849e-03 0.0000000000000000e+00  -8.7979301381784229e-04 1.9623138961348042e-03 0.000