<?xml version="1.0"?>
<VTKFile type="UnstructuredGrid"  version="0.1"  >
<UnstructuredGrid>
<Piece  NumberOfPoints="1385" NumberOfCells="2640">
<Points>
<DataArray  type="Float64"  NumberOfComponents="3"  format="ascii">0 0 0  1 0 0  1 1 0  0 1 0  0.5 0 0  1 0.5 0  0.5 1 0  0 0.5 0  0.5 0.5 0  0 0.25 0  0.25 0 0  0.25 1 0  0 0.75 0  1 0.25 0  0.75 0 0  1 0.75 0  0.75 1 0  0.7083333333333333 0.2916666666666667 0  0.2916666666666666 0.7083333333333334 0  0.375 0.25 0  0.75 0.625 0  0.2569444444444444 0.4652777777777778 0  0.5366379310344828 0.7535919540229885 0  0.1875 0.1875 0  0.8125 0.8125 0  0.869047619047619 0.375 0  0.1450441919191919 0.6052714646464646 0  0.375 0.8690476190476191 0  0.5526960784313725 0.1825980392156862 0  0.8385416666666666 0.1614583333333334 0  0.1614583333333333 0.8385416666666667 0  0.6736111111111112 0.4652777777777778 0  0.1367521367521368 0.3477564102564102 0  0.6570970491253563 0.8648656830417855 0  0.5102479397556124 0.3386260301221938 0  0.3654513888888889 0.5737847222222222 0  0.6929750044954185 0.1362784921584263 0  0.388576102743835 0.411911725237599 0  0.6091269841269842 0.5942460317460317 0  0.875 0.6875 0  0.427278890279516 0.119889445139758 0  0.8544456845238095 0.5213913690476191 0  0.125 0 0  0 0.125 0  1 0.875 0  0.875 1 0  0.1280008648150532 0.4769292340226777 0  0.2695382451711197 0.3321750950221553 0  0.7031567235715964 0.7447810921428012 0  0.625 0 0  0.375 0 0  0.125 1 0  0.875 0 0  0 0.375 0  0 0.625 0  1 0.375 0  0.375 1 0  1 0.125 0  0 0.875 0  0.625 1 0  1 0.625 0  0.2979288363930608 0.1201429454643536 0  0.410919540229885 0.7484605911330049 0  0.5325041980395562 0.878905151526474 0  0.4831670727569156 0.6331060043826487 0  0.1735997378973042 0.7204747378973043 0  0.2534919507575758 0.5772372159090909 0  0.2633928571428572 0.8876488095238095 0  0.8199404761904761 0.2730654761904762 0  0.75830270586982 0.3919383189517417 0  0.5750282248382511 0.4237522353023667 0  0.6008360210023379 0.2794828358598495 0  0.08163442644334186 0.6821295860397322 0  0.08333333333333333 0.1875 0  0.2028380815996574 0.08844602719988583 0  0.2766521142611967 0.2325436572164097 0  0.90625 0.78125 0  0.890625 0.890625 0  0.7545696325008384 0.8973565441669461 0  0.5625 0.08086590340834317 0  0.09077380952380953 0.09077380952380952 0  0.4610923478694773 0.209034015149656 0  0.7542527598351648 0.5248380520595106 0  0.6459235536037465 0.3619913988405765 0  0.7560381768882634 0.20506142233852 0  0.07073252688172042 0.8125 0  0.0924753097241701 0.9078102849914793 0  0.9292674731182795 0.1875 0  0.9075246902758297 0.09218971500852073 0  0.8125 0.07073252688172045 0  0.2400955776842301 0.7869705776842302 0  0.9121050213379069 0.2781978201831695 0  0.7916878157143976 0.7239689078571988 0  0.9345238095238094 0.4375 0  0.4375 0.9345238095238095 0  0.3725616989755203 0.6651895248862173 0  0.06536271996350887 0.5625 0  0.9348362560379583 0.5625 0  0.456646798987055 0.8277247094351965 0  0.1875 0.9355758238725954 0  0.6169761231634859 0.6939779188977889 0  0.6226854751147515 0.7827911461419014 0  0.3305695598137626 0.7901697871282585 0  0.5865305325818898 0.5101085479043448 0  0.6622701297028378 0.2177663989757395 0  0.1354166666666667 0.2591702279202279 0  0 0.3125 0  0.2094429575680048 0.3936361846162499 0  0.836666296419157 0.607917407161686 0  0.6875 1 0  0.214261555450504 0.6492551722020035 0  0 0.4375 0  0.07731537126068377 0.40625 0  0.3427725432967068 0.4879566233699599 0  0.3550792513951871 0.3331953632609953 0  0.4462473953896857 0.2887834789342508 0  0.4747801464819794 0.417386052030127 0  0.8229836475148948 0.4443292349237342 0  0.7322605135514757 0.8199240278289671 0  0.6756431877205955 0.5468989748126787 0  0.1968419507215863 0.5194573482612496 0  0.3285590277777778 0.9345238095238095 0  0.8125 1 0  0.4198917601920009 0.5134893045331258 0  0.5232405503206691 0.2595791787880157 0  1 0.9375 0  0.1987510870015086 0.3025185951894431 0  0.5625 1 0  0.6005390654136388 0.9228110509230952 0  0.6411254848194414 0.07704872765442942 0  0.3357233162523242 0.1855113224530532 0  0.6730653396610877 0.6393887462324165 0  0.310966987234063 0.6240019765311626 0  0.7368737836204349 0.07457755202327881 0  0.6192316414418171 0.1485238406378594 0  0.5432429670607106 0.678552703844006 0  0.4754371679695679 0.7103946803120881 0  0.07501324890749672 0.3043839897335739 0  0.5358146975860403 0.5688321463205916 0  0.3115271739500156 0.3982137365971444 0  0.3625191397122174 0.0767854603650549 0  0.5024029442563831 0.1264128223758444 0  0.4375 0 0  0.4699946908887376 0.06379961173775725 0  0.9375 0.71875 0  0.9272105898044465 0.635671179608893 0  0.9375 1 0  0.6690971819568612 0.9331530898202766 0  0.1073454944778885 0.7499206387638554 0  0.8699082999280406 0.2232403652524313 0  0.5773118091863964 0.3548027349159383 0  0.1354166666666667 0.1428571428571428 0  0.3125 0 0  0.8241684193077341 0.9257452995055244 0  0.4352314948354036 0.3586940847489378 0  0.4351301473778832 0.5819726043539077 0  0.8073232928518163 0.3419398170341962 0  0.7775949246947366 0.1298519409204575 0  0.6875 0 0  0.7413513991851041 0.457933324954483 0  0.939453125 0.841796875 0  0.5630355154606987 0.8171875156478349 0  0.9345238095238095 0.3461466592368577 0  0.9375 0 0  1 0.0625 0  0.0625 1 0  0 0.9375 0  0.06552178593177167 0.4969053669623468 0  0.1424866619031703 0.4130277709291224 0  0.1275287182444726 0.5422946908002588 0  0.2637686595586339 0.06413888464529549 0  0.2524263535491086 0.1697437503243817 0  0.7367218397988525 0.6888573970660841 0  0.0625 0 0  0 0.0625 0  0.8463594539285995 0.7578283617857982 0  0.3128751192101563 0.2851997374369947 0  0.4015281788351144 0.1806421385113692 0  0.1910251795116588 0.4553332197174453 0  0.287797471442006 0.5222621440543902 0  0.3962628745986055 0.8097380085535307 0  0.3505895299554843 0.7304878890838692 0  0.5019151500495276 0.9356042615328103 0  0.9374389419410134 0.4999931039076005 0  0.3125 1 0  0.1875 1 0  1 0.5625 0  0.4375 1 0  1 0.3125 0  1 0.4375 0  0.8125 0 0  1 0.1875 0  0.5625 0 0  0.1875 0 0  0 0.1875 0  0 0.5625 0  0 0.6875 0  0 0.8125 0  1 0.6875 0  1 0.8125 0  0.8021696218581627 0.6612893947866073 0  0.06154922295426143 0.6239401126946708 0  0.9359375 0.9359375 0  0.4666158024849896 0.7691515918155014 0  0.2318201265217025 0.7064974250277525 0  0.1565954253579966 0.6635489312486841 0  0.1598132503680848 0.7787147500325552 0  0.3146529991605639 0.8510876378205265 0  0.1461873209418733 0.05982804528877814 0  0.06109554988524315 0.2446551776247686 0  0.8054950308560754 0.5564226538848541 0  0.470541749491976 0.8853316336952531 0  0.6948472567465137 0.4042308563372457 0  0.8802828472348889 0.4658893256343853 0  0.6788075634946739 0.7974194205806069 0  0.2155048659603867 0.2428201584940968 0  0.8131223143423806 0.2132171049028394 0  0.4330798005432235 0.6671274900735726 0  0.6015279126162613 0.2187368078743274 0  0.8061636571464289 0.8703766630361714 0  0.7008230445061776 0.3478568388444072 0  0.8638466246958771 0.3147095987735538 0  0.204801534004265 0.8789209409594009 0  0.2449006736431132 0.9424182882803838 0  0.7611268409371427 0.2643056884799992 0  0.7552800864046191 0.7678006649959446 0  0.5983639638906616 0.864113435029236 0  0.1956559506814437 0.577281203577426 0  0.3527670268164207 0.1320469097565204 0  0.7530364577483248 0.3262386077083089 0  0.4535919187979363 0.4690107087451527 0  0.8824869791666666 0.8336588541666666 0  0.8814453125 0.9451171875 0  0.5582987942628019 0.622421666543858 0  0.6817532446064828 0.6939001801354731 0  0.3830295138888889 0.9450968952922078 0  0.4140603937012541 0.05211333372716105 0  0.5535864501303013 0.3060591985391672 0  0.6560130086346878 0.2729726562211558 0  0.890203140221684 0.5948314305427268 0  0.7043857725999024 0.593980890020804 0  0.5105843922695152 0.8016828014338627 0  0.05365910753708378 0.7315110031682004 0  0.616904573672261 0.4621186633436136 0  0.5338511646455415 0.387875898899613 0  0.5231769258947843 0.4477682463140762 0  0.650302973237622 0.7370722302085519 0  0.3927483139621257 0.4662414504529014 0  0.8034595960585199 0.4972538342758211 0  0.7738337841682438 0.9496376207663251 0  0.7193737507158268 0.954685447650112 0  0.482525916480686 0.5528257169991676 0  0.2533501157346781 0.2809495420003238 0  0.3118487924482243 0.5702930126570319 0  0.6257598847669529 0.4104163315430518 0  0.1354166666666667 0.1955605158730158 0  0.04166666666666666 0.15625 0  0.3956448985530264 0.6174149462065157 0  0.8102897701818546 0.3938784238208349 0  0.2641154190013625 0.8344469561943118 0  0.642852220770013 0.5068794586563659 0  0.05271458179508221 0.355846947336007 0  0.7021551360070266 0.8921457280225779 0  0.5692125776683765 0.1328512638850284 0  0.5206162811937602 0.04865158770992991 0  0.6001838442201555 0.04540556991297563 0  0.2597716608242787 0.4118346398477178 0  0.4040584599473195 0.3179589136784675 0  0.1480337679295207 0.8941560631483065 0  0.1344356707112281 0.9466251177415842 0  0.7114696411829317 0.4983917389078826 0  0.7585704698442475 0.5751926345944629 0  0.2189131956390871 0.04022068508159698 0  0.2476935455192043 0.1123642267635843 0  0.185995005654517 0.1365524537205238 0  0.6223414373308711 0.643380839165121 0  0.5732602596637543 0.7190051747306219 0  0.268358222364537 0.6586246524467934 0  0.3265879848129173 0.2369791782191225 0  0.1267095595787346 0.7034787238999181 0  0.1115202922226038 0.6421997933884982 0  0.3128688392940203 0.07260997451790079 0  0.550724900485678 0.9253360991633187 0  0.7142608810459105 0.2384904702214873 0  0.7045869185243887 0.1871826897887429 0  0.890625 0.734375 0  0.953125 0.765625 0  0.2111812642821677 0.8286209446459138 0  0.9590293078204457 0.09375 0  0.953431269039847 0.1435719386408004 0  0.04097069217955424 0.90625 0  0.04656873096015299 0.8564280613591996 0  0.1078743037981226 0.8541621766048062 0  0.8921256962018773 0.1458378233951939 0  0.8521576979194619 0.1084496634207678 0  0.8655663982740958 0.05464346096571447 0  0.04005659640905543 0.09375 0  0.1001448316533417 0.04246776244228261 
[...]
<PointData  Vectors="f_9744-0"> 
<DataArray  type="Float64"  Name="f_9744-0"  NumberOfComponents="3" format="ascii">7.0482236017096926e-03 3.1664037508318159e-03 0.0000000000000000e+00  1.3758414772305657e-03 -3.1080106126640057e-04 0.0000000000000000e+00  3.7365896332407196e-03 2.2683972805863893e-04 0.0000000000000000e+00  4.4484935949725361e-03 3.1681618238545064e-04 0.0000000000000000e+00  2.6121604780019632e-03 -5.0047529750881685e-03 0.0000000000000000e+00  9.9102431127303346e-04 1.6109257887839771e-04 0.0000000000000000e+00  1.2432262764612053e-03 -2.1983384744655565e-04 0.0000000000000000e+00  3.1726828989491161e-03 -1.2852309145330600e-03 0.0000000000000000e+00  -1.0802581030559837e-04 -5.1863380806409860e-04 0.0000000000000000e+00  7.2402426805680473e-03 3.4786669515630888e-04 0.0000000000000000e+00  2.8604865423405559e-03 -2.7701905996765997e-03 0.0000000000000000e+00  -1.5052249408867031e-04 1.6451042764007789e-03 0.0000000000000000e+00  6.7144436422123272e-03 -1.1771460588827156e-03 0.0000000000000000e+00  -1.5209744582229479e-04 4.8917169854597795e-04 0.0000000000000000e+00  5.7500921109576123e-04 1.5542611896104184e-03 0.0000000000000000e+00  2.6490380902351425e-03 -1.6732545043525676e-04 0.0000000000000000e+00  2.1898672706610841e-03 -4.0003767292319027e-04 0.0000000000000000e+00  1.3778542355143146e-03 -1.0404322847099279e-03 0.0000000000000000e+00  1.5044712053913782e-03 -4.8509370910032867e-04 0.0000000000000000e+00  -1.1625869555866512e-03 1.8512233496817314e-03 0.0000000000000000e+00  1.9117288727289309e-03 5.2444869420707231e-04 0.0000000000000000e+00  2.2917310975546267e-03 -2.0801510800433189e-03 0.0000000000000000e+00  1.6000736313270488e-03 6.2388643778621866e-04 0.0000000000000000e+00  -1.5277972359816964e-03 -3.1194533643208117e-03 0.0000000000000000e+00  1.4875523723035067e-03 -1.6801380722520861e-04 0.0000000000000000e+00  2.6123620497897466e-03 1.0325309109469392e-04 0.0000000000000000e+00  -1.1841795427502703e-03 1.1513066776228688e-03 0.0000000000000000e+00  3.0984842683547146e-03 8.4457211572423692e-05 0.0000000000000000e+00  3.6224296083672424e-03 7.5491022625995274e-04 0.0000000000000000e+00  -7.7115448955295096e-05 2.8147217075642149e-04 0.0000000000000000e+00  -8.0532733184266359e-04 -2.4265783140040091e-04 0.0000000000000000e+00  3.3518495149973348e-04 -1.6684699000243839e-03 0.0000000000000000e+00  -1.3898844307308198e-03 5.5304362639326443e-04 0.0000000000000000e+00  1.4067866528265824e-03 -1.2798674191550111e-04 0.0000000000000000e+00  -9.0658932443835754e-04 -1.5701745926064107e-03 0.0000000000000000e+00  5.4669649738537628e-03 2.9689812293744698e-05 0.0000000000000000e+00  -4.2831098975019315e-03 -1.5441433336158298e-04 0.0000000000000000e+00  1.8757234765427713e-03 2.2668422955152982e-03 0.0000000000000000e+00  4.3298473572798426e-04 1.2757500648526831e-03 0.0000000000000000e+00  1.4754114031282528e-03 1.6901320721730525e-05 0.0000000000000000e+00  1.6484436552106397e-03 -2.4678393637627698e-03 0.0000000000000000e+00  2.0725957769460786e-03 1.2920445140940037e-05 0.0000000000000000e+00  2.4864655465525404e-03 -1.8125888182090829e-03 0.0000000000000000e+00  5.4888206411267629e-03 -2.6836074410837665e-03 0.0000000000000000e+00  3.4538236181404685e-03 -2.9940537072942262e-04 0.0000000000000000e+00  1.8774641666074333e-03 -1.5325611541392396e-03 0.0000000000000000e+00  1.6479352626150357e-03 -6.6737503022858287e-04 0.0000000000000000e+00  6.2622102701743627e-03 3.0063803940070426e-04 0.0000000000000000e+00  1.0932408640678579e-03 2.1890776941903842e-04 0.0000000000000000e+00  4.7778572512009758e-03 -9.7170557109972069e-04 0.0000000000000000e+00  2.4941929538162865e-03 -2.1009360225179028e-04 0.0000000000000000e+00  -6.1382146309126116e-04 7.8630584738730654e-04 0.0000000000000000e+00  2.8573976459260178e-03 -5.9301873614917217e-04 0.0000000000000000e+00  7.1437219764544056e-03 -4.5792060718463710e-04 0.0000000000000000e+00  7.0526919764097116e-03 5.5795202393359427e-05 0.0000000000000000e+00  1.0299407541684196e-04 2.5847086871360150e-04 0.0000000000000000e+00  3.6230040089841274e-04 -1.1200089109604995e-04 0.0000000000000000e+00  3.0976183938443303e-04 8.2927897109632783e-04 0.0000000000000000e+00  2.7925463625649454e-03 -1.0013877991307957e-03 0.0000000000000000e+00  1.5568947047232280e-03 -6.5393524701499225e-05 0.0000000000000000e+00  1.7572791337525698e-03 -8.8155613872892323e-05 0.0000000000000000e+00  -3.2591298472351180e-04 -1.0987552947148364e-03 0.0000000000000000e+00  -4.9737942409831522e-04 1.1320273199143958e-03 0.0000000000000000e+00  9.7903588959052197e-04 1.9675674010454782e-04 0.0000000000000000e+00  1.2125401801071065e-04 8.6869388858885508e-04 0.0000000000000000e+00  1.0789301141910937e-03 -1.9564810894907025e-03 0.0000000000000000e+00  2.0339579736837195e-03 7.3272886165924784e-04 0.0000000000000000e+00  5.4641499535789122e-04 2.5421336988513688e-04 0.0000000000000000e+00  -1.9190038459653350e-03 1.2459582688372764e-04 0.0000000000000000e+00  -2.5500470251409331e-04 -1.0951652868343561e-03 0.0000000000000000e+00  6.2802459650193078e-04 -9.7881357075628450e-04 0.0000000000000000e+00  6.0566694834996004e-03 6.6167162716020643e-04 0.0000000000000000e+00  -6.6184214610115987e-04 7.8961896736204568e-04 0.0000000000000000e+00  -3.5725254609038611e-03 -1.4166927365334078e-03 0.0000000000000000e+00  -5.3425714706838157e-03 1.5240671364330207e-03 0.0000000000000000e+00  4.2276363992601526e-03 -1.4271240977858047e-03 0.0000000000000000e+00  1.9352051075768059e-03 -4.0298740201115179e-04 0.0000000000000000e+00  1.7103309222078118e-03 1.1798682564766705e-06 0.0000000000000000e+00  1.5491393126058216e-03 -4.5459863450052565e-04 0.0000000000000000e+00  -2.5554675734466908e-03 -1.2246722750280307e-04 0.0000000000000000e+00  3.9381345684246886e-03 -2.1634256143730187e-03 0.0000000000000000e+00  -3.4864196909709286e-03 7.2283159631724326e-04 0.0000000000000000e+00  1.7093832971407383e-03 -7.2433718466829219e-05 0.0000000000000000e+00  4.9498777954150319e-04 -3.1904036104454900e-05 0.0000000000000000e+00  2.2927335006535780e-03 1.0573594361987684e-03 0.0000000000000000e+00  2.9167631677434881e-03 5.9985485740446593e-04 0.0000000000000000e+00  2.0769119561085403e-03 3.4895152740002503e-04 0.0000000000000000e+00  3.6878161564655471e-03 -8.2679301197577089e-04 0.0000000000000000e+00  -8.2020518962552932e-04 6.4580661669454305e-04 0.0000000000000000e+00  2.3928081943465841e-03 -1.5442033980436849e-03 0.0000000000000000e+00  -3.9728190023118580e-04 8.0872542281161563e-04 0.0000000000000000e+00  2.3202838205414510e-03 6.1996271358819618e-04 0.0000000000000000e+00  1.6351790320228033e-03 -1.0588120377432754e-05 0.0000000000000000e+00  2.4077665009458139e-03 -2.7588445587516255e-04 0.0000000000000000e+00  1.9952960797983599e-03 8.7508358719581305e-05 0.0000000000000000e+00  -1.6898091412765217e-03 -9.1055406035628597e-05 0.0000000000000000e+00  -1.5089113765694596e-03 3.1738432448676244e-03 0.0000000000000000e+00  2.0139082963848472e-03 2.6887769232182067e-05 0.0000000000000000e+00  2.1675660889920473e-03 -1.2368138946916426e-03 0.0000000000000000e+00  -4.3563919783074650e-04 5.9719016578724639e-04 0.0000000000000000e+00  1.0359561522284267e-03 -6.2732964630645891e-04 0.0000000000000000e+00  1.3876234026460980e-03 2.7593792131066407e-04 0.0000000000000000e+00  8.6982305162909882e-04 -3.8062869866432184e-03 0.0000000000000000e+00  2.4624778266386267e-03 -7.9011537832920648e-04 0.0000000000000000e+00  -4.5689392670237249e-04 2.6258054580860363e-03 0.0000000000000000e+00  -1.6128957630184122e-03 -1.5218834552032036e-03 0.0000000000000000e+00  1.0533822551422605e-03 -1.6229173893051300e-03 0.0000000000000000e+00  2.9640986267572049e-04 -1.3241850435152338e-03 0.0000000000000000e+00  9.9902333760226269e-04 2.5505259743691610e-04 0.0000000000000000e+00  1.6000222552092658e-03 -2.7140009513608324e-04 0.0000000000000000e+00  2.8366330609864716e-04 1.2231995319276314e-03 0.0000000000000000e+00  4.4697291094948424e-03 -1.9571339012653573e-03 0.0000000000000000e+00  -1.1373177776238474e-03 2.2628135840813758e-04 0.0000000000000000e+00  -2.8257087644815602e-03 -1.0863195920592140e-03 0.0000000000000000e+00  -9.3805550352745099e-04 -1.7377379339746158e-03 0.0000000000000000e+00  2.6643886889026018e-03 1.4958407999370767e-03 0.0000000000000000e+00  8.6296922962641738e-04 -2.6109519065644201e-03 0.0000000000000000e+00  1.9690264223967978e-04 6.1338393401531963e-04 0.0000000000000000e+00  1.4485120460107457e-03 1.9196981036414618e-05 0.0000000000000000e+00  9.0088609193163640e-04 -9.3629902500177347e-04 0.0000000000000000e+00  -3.6666796708102745e-03 -6.2537579655032294e-04 0.0000000000000000e+00  9.1370752424811599e-05 5.9231230688521809e-05 0.0000000000000000e+00  3.0749011393867071e-03 -1.0064907013672773e-03 0.0000000000000000e+00  3.4845958575733917e-03 -7.3637084904521668e-03 0.0000000000000000e+00  -1.4334070487609105e-03 1.5024034284135158e-03 0.0000000000000000e+00  4.1140148651507124e-03 2.0272552023847425e-05 0.0000000000000000e+00  2.2203959865471925e-03 -9.3470860487759302e-04 0.0000000000000000e+00  1.1899049415453155e-03 3.6979033223054434e-05 0.0000000000000000e+00  1.5298923535916264e-03 -4.6761830832998518e-05 0.0000000000000000e+00  2.9931620342125236e-03 -2.1508591185334584e-03 0.0000000000000000e+00  5.1411351244001601e-03 7.3452111416891133e-04 0.0000000000000000e+00  2.2064874712983029e-03 -1.2667780350533004e-04 0.0000000000000000e+00  -2.4775530078534505e-03 4.7915928166867021e-04 0.0000000000000000e+00  4.9041981610870745e-03 -2.8038991833803531e-04 0.0000000000000000e+00  3.3958892043724972e-03 -1.9398166114131343e-03 0.0000000000000000e+00  2.3173829865524099e-03 -7.3166392567806113e-04 0.0000000000000000e+00  2.5833966643841531e-03 -8.2536550685240791e-04 0.0000000000000000e+00  -1.9101101259611198e-03 -1.6009308204590993e-04 0.0000000000000000e+00  2.4166558952476180e-03 -2.6202591821095224e-04 0.0000000000000000e+00  1.9376823686292337e-03 -2.0882381656173285e-03 0.0000000000000000e+00  6.9650229003969093e-04 3.1046523354501423e-03 0.0000000000000000e+00  -1.0238853083557428e-03 -1.0596999832993138e-03 0.0000000000000000e+00  2.4442941326442793e-03 -5.6624896752089466e-04 0.0000000000000000e+00  1.3366908692024780e-04 3.4400882391382701e-04 0.0000000000000000e+00  2.0284440367691844e-03 -5.8416359665855412e-05 0.0000000000000000e+00  1.5787433198333012e-03 -1.2437179380384369e-05 0.0000000000000000e+00  2.8455807726924598e-03 2.7712620247207073e-04 0.0000000000000000e+00  1.2464172344857408e-03 8.3160501540720450e-05 0.0000000000000000e+00  -2.6610164541612863e-03 8.8590345588843611e-04 0.0000000000000000e+00  5.0706162808992279e-04 3.6691925481764648e-04 0.0000000000000000e+00  5.4242679837112782e-03 -7.3656280303910056e-04 0.0000000000000000e+00  3.5643343683580572e-04 -1.7913389261806220e-04 0.0000000000000000e+00  3.8682964028273923e-03 -1.3566308573452557e-03 0.0000000000000000e+00  1.2709193403843805e-03 3.1387797386638614e-04 0.0000000000000000e+00  3.7422981570861798e-03 -1.2220805086395269e-03 0.0000000000000000e+00  5.7935798880818872e-04 -3.1005161624287779e-04 0.0000000000000000e+00  3.4664754100366822e-03 2.3530724840678703e-04 0.0000000000000000e+00  3.3533175934558762e-03 -3.8204582946294958e-03 0.0000000000000000e+00  3.0796348380094617e-03 -2.1614317665610621e-04 0.0000000000000000e+00  -4.2421391620026247e-04 4.1073419656443438e-04 0.0000000000000000e+00  3.5182688991165247e-04 -9.2656759847389641e-04 0.0000000000000000e+00  7.0777081524718934e-04 3.6955480569625930e-04 0.0000000000000000e+00  1.3003845522258095e-04 1.7385964363200259e-03 0.0000000000000000e+00  3.0403794749741765e-03 -1.0324662273331958e-03 0.0000000000000000e+00  -1.4714776704069046e-03 6.4651789357710022e-04 0.0000000000000000e+00  -6.7346626210512727e-04 1.0540396449611701e-03 0.0000000000000000e+00  4.4992371411948194e-03 -9.6230660226649103e-04 0.0000000000000000e+00  -3.8281939175240426e-03 8.9755023879242442e-04 0.0000000000000000e+00  6.4541165061574061e-03 -1.1018832169301237e-03 0.0000000000000000e+00  1.1591819095779451e-03 -7.9606525158266550e-04 0.0000000000000000e+00  -1.7302954223867508e-03 -7.2025502562326875e-04 0.0000000000000000e+00  5.8113866365735786e-03 -1.7023533089056035e-05 0.0000000000000000e+00  1.5040613672706602e-03 -4.9743544333497860e-05 0.0000000000000000e+00  2.4520611039659367e-03 -2.2210841342917521e-03 0.0000000000000000e+00  4.0240908346586002e-03 -1.5792750401761903e-03 0.0000000000000000e+00  1.5722376133214849e-03 -3.7631887639834132e-05 0.0000000000000000e+00  -9.8684568178409801e-04 -2.5490100326005594e-04 0.0000000000000000e+00  3.2487119213021141e-03 7.6899106308432890e-04 0.0000000000000000e+00  -2.3479057164256241e-03 2.5666457518265903e-03 0.0000000000000000e+00  1.8851030291749541e-03 1.1955938087933071e-03 0.0000000000000000e+00  1.6539429955173652e-04 1.3259831117257625e-04 0.0000000000000000e+00  2.8231215580305702e-03 7.9311509637896985e-04 0.0000000000000000e+00  5.9054377437888883e-04 4.9955595732105440e-04 0.0000000000000000e+00  1.6744349211746685e-03 -5.3148719402610679e-04 0.0000000000000000e+00  7.8643544542927987e-04 1.7781781122240738e-03 0.0000000000000000e+00  -8.9960986643641686e-04 4.6886349636538881e-04 0.0000000000000000e+00  1.5719845509349010e-03 8.3860090189230053e-05 0.0000000000000000e+00  6.0528121429859758e-04 -2.6197023926554070e-05 0.0000000000000000e+00  5.6754958565040066e-05 4.6702869224417450e-04 0.0000000000000000e+00  6.1283837191271329e-04 4.0593957682713767e-04 0.0000000000000000e+00  2.9057132622232361e-03 -7.7257940574957848e-04 0.0000000000000000e+00  -1.0396366143342684e-03 5.6965482100570033e-04 0.0000000000000000e+00  2.8440317251668800e-03 1.5922409715282020e-04 0.0000000000000000e+00  4.0260207369465194e-03 -7.8827628423563684e-04 0.0000000000000000e+00  2.5759682646666047e-03 -1.0137899467228817e-03 0.0000000000000000e+00  9.0676463540161258e-03 -1.1083741065721793e-03 0.0000000000000000e+00  9.9683618254796120e-04 -6.7991718159965799e-04 0.0000000000000000e+00  5.2909271840723259e-03 -7.5739922377857300e-04 0.0000000000000000e+00  2.0007481489319680e-03 -2.0540562843637290e-04 0.0000000000000000e+00  3.8504660515456621e-03 -5.5424494395318717e-04 0.0000000000000000e+00  1.3941355213225896e-03 -2.4721630616724425e-04 0.0000000000000000e+00  1.6982119159367724e-04 1.1066880610603503e-03 0.0000000000000000e+00  4.8429675522025000e-04 -1.0258821859587201e-04 0.0000000000000000e+00  2.0588552805312684e-03 -2.7277875279937540e-04 0.0000000000000000e+00  9.6417227222362831e-04 -5.4134083484312992e-04 0.0000000000000000e+00  1.2975416134277332e-03 9.0108154704692368e-04 0.0000000000000000e+00  4.9823842331791005e-03 -2.3786663939746595e-03 0.0000000000000000e+00  1.6589297042747982e-03 -1.8613031486957340e-03 0.0000000000000000e+00  2.2410562393131656e-03 -2.3683841037929385e-03 0.0000000000000000e+00  -3.0784035373941651e-03 5.7491167237441569e-03 0.0000000000000000e+00  1.5545234248012551e-03 4.5156043067912327e-06 0.0000000000000000e+00  1.2629363998765903e-03 -1.4899215257006696e-04 0.0000000000000000e+00  -1.4215993774776927e-03 3.3863552919496838e-03 0.0000000000000000e+00  2.4505439482243587e-03 7.6884406974847531e-05 0.0000000000000000e+00  1.3692957053478153e-03 2.0259937388228568e-04 0.0000000000000000e+00  5.7451055876250687e-03 -4.9269352652381770e-04 0.0000000000000000e+00  2.0214188875366961e-03 -2.9194396097041407e-03 0.0000000000000000e+00  2.0046799613304541e-03 -1.1115412933767569e-03 0.0000000000000000e+00  -1.0667376984678708e-04 -3.2247161146813964e-04 0.0000000000000000e+00  1.1675660965020562e-03 -4.3795246293172228e-05 0.0000000000000000e+00  3.8995845275934826e-03 5.5336063713932863e-04 0.0000000000000000e+00  1.5596014157253518e-03 -9.5212403889409001e-05 0.0000000000000000e+00  8.2816485218229163e-05 -4.4174687185808933e-04 0.0000000000000000e+00  1.6627993443628316e-03 -7.0216769440179959e-04 0.0000000000000000e+00  -4.0048983088262748e-04 1.5592931030009591e-04 0.0000000000000000e+00  1.4536851175256048e-03 8.8026646629730935e-05 0.0000000000000000e+00  1.4800902361069832e-03 7.2501048609357305e-06 0.0000000000000000e+00  4.4472706402091155e-03 -2.0522152216872593e-03 0.0000000000000000e+00  -5.5611249997287017e-04 -2.1309740926494804e-03 0.0000000000000000e+00  -1.6152419310116858e-03 -1.2339628305504296e-06 0.0000000000000000e+00  1.6341737439303421e-03 -1.1439303942539997e-03 0.0000000000000000e+00  6.5708575193307436e-04 8.1340511057128619e-04 0.0000000000000000e+00  2.0829359894833799e-03 -3.3657015609382223e-04 0.0000000000000000e+00  -8.0486368843980750e-05 -3.1415414965802228e-04 0.0000000000000000e+00  5.1531255717676759e-04 1.0415892374875102e-04 0.0000000000000000e+00  1.8210170505602926e-03 -3.2605469492424450e-04 0.0000000000000000e+00  2.0631799666618001e-03 -1.0738292419488651e-03 0.0000000000000000e+00  3.3981809058725556e-03 -9.6666179916992799e-04 0.0000000000000000e+00  1.9348045049241637e-03 -1.7819794423455941e-04 0.0000000000000000e+00  1.5230011125830310e-03 -7.6660804214919148e-05 0.0000000000000000e+00  3.0186314250512632e-03 -5.3317566146568060e-05 0.0000000000000000e+00  1.2729009211896688e-03 -2.1147694960865066e-05 0.0000000000000000e+00  1.8696930786873990e-03 7.0851652741456468e-04 0.0000000000000000e+00  2.0048309301428664e-03 -7.2743449737132750e-04 0.0000000000000000e+00  -9.6411422804614237e-04 1.6469333907414812e-03 0.0000000000000000e+00  -2.4867932218024988e-03 6.2500658253847362e-04 0.0000000000000000e+00  7.7805629830868077e-04 1.0512701824819590e-03 0.0000000000000000e+00  -1.5663646156956314e-03 -4.5702191180537681e-04 0.0000000000000000e+00  9.9565529057473313e-04 -3.8379937004125435e-04 0.0000000000000000e+00  2.2084502543289470e-03 -5.1953941833049293e-04 0.0000000000000000e+00  1.8383052295522584e-03 -2.4319350288078666e-04 0.0000000000000000e+00  -1.1036030374062511e-03 -7.7144725744064105e-04 0.0000000000000000e+00  -5.2635626967317069e-04 1.1349635519933604e-03 0.0000000000000000e+00  -6.7679976362844700e-04 1.4885020873460272e-03 0.0000000000000000e+00  1.5888174385889112e-03 -5.5569319740686332e-04 0.0000000000000000e+00  -3.1293088298710915e-03 7.3233946118479677e-04 0.0000000000000000e+00  -3.3131621227224708e-03 2.0143396324726467e-03 0.0000000000000000e+00  -7.8768548117590564e-04 1.8389534301507058e-03 0.0000000000000000e+00  2.0608262890821198e-03 -3.8903015800037418e-04 0.0000000000000000e+00  1.6493922360278968e-03 1.8154208248218116e-03 0.0000000000000000e+00  7.3554013285562951e-04 1.3012514912541032e-03 0.0000000000000000e+00  4.3289621867652426e-03 -1.6055340626825311e-03 0.0000000000000000e+00  1.2733194474438421e-03 -5.5760844205894177e-05 0.0000000000000000e+00  1.3376825284453582e-03 -1.6114288263426129e-03 0.0000000000000000e+00  -2.6869228064517487e-03 8.8535884570783725e-04 0.0000000000000000e+00  -1.7770947786866526e-03 1.2338405147826886e-03 0.0000000000000000e+00  -3.2958120310231658e-03 1.5266227145123916e-03 0.0000000000000000e+00  -3.6356457373349651e-04 3.3621077008300814e-04 0.0000000000000000e+00  1.9425038566961432e-03 6.9674137897957956e-04 0.0000000000000000e+00  4.5548362826526947e-04 6.9339804089940974e-04 0.0000000000000000e+00  1.9717540860459415e-04 2.7452264972383986e-04 0.0000000000000000e+00  8.4302624585232805e-04 2.5151719689554711e-04 0.0000000000000000e+00  5.1080321869733508e-05 -1.0675860550740717e-03 0.0000000000000000e+00  -5.7895542138423906e-04 -2.6628604912001846e-04 0.0000000000000000e+00  1.7650649375772630e-03 2.3750749645565336e-03 0.0000000000000000e+00  2.0115866464257195e-03 6.1427939290513173e-05 0.0000000000000000e+00  8.7874910972112136e-04 -5.5843642632225055e-04 0.0000000000000000e+00  2.4589539297702835e-04 9.7809451829357179e-04 0.0000000000000000e+00  3.7122141145916479e-03 -1.2475515724403410e-03 0.0000000000000000e+00  -6.3982593840648263e-04 -9.7169124607213533e-04 0.0000000000000000e+00  -1.2511154885067098e-03 -8.1315377211547057e-04 0.00000000000