<?xml version="1.0"?>
<VTKFile type="UnstructuredGrid"  version="0.1"  >
<UnstructuredGrid>
<Piece  NumberOfPoints="1385" NumberOfCells="2640">
<Points>
<DataArray  type="Float64"  NumberOfComponents="3"  format="ascii">0 0 0  1 0 0  1 1 0  0 1 0  0.5 0 0  1 0.5 0  0.5 1 0  0 0.5 0  0.5 0.5 0  0 0.25 0  0.25 0 0  0.25 1 0  0 0.75 0  1 0.25 0  0.75 0 0  1 0.75 0  0.75 1 0  0.7083333333333333 0.2916666666666667 0  0.2916666666666666 0.7083333333333334 0  0.375 0.25 0  0.75 0.625 0  0.2569444444444444 0.4652777777777778 0  0.5366379310344828 0.7535919540229885 0  0.1875 0.1875 0  0.8125 0.8125 0  0.869047619047619 0.375 0  0.1450441919191919 0.6052714646464646 0  0.375 0.8690476190476191 0  0.5526960784313725 0.1825980392156862 0  0.8385416666666666 0.1614583333333334 0  0.1614583333333333 0.8385416666666667 0  0.6736111111111112 0.4652777777777778 0  0.1367521367521368 0.3477564102564102 0  0.6570970491253563 0.8648656830417855 0  0.5102479397556124 0.3386260301221938 0  0.3654513888888889 0.5737847222222222 0  0.6929750044954185 0.1362784921584263 0  0.388576102743835 0.411911725237599 0  0.6091269841269842 0.5942460317460317 0  0.875 0.6875 0  0.427278890279516 0.119889445139758 0  0.8544456845238095 0.5213913690476191 0  0.125 0 0  0 0.125 0  1 0.875 0  0.875 1 0  0.1280008648150532 0.4769292340226777 0  0.2695382451711197 0.3321750950221553 0  0.7031567235715964 0.7447810921428012 0  0.625 0 0  0.375 0 0  0.125 1 0  0.875 0 0  0 0.375 0  0 0.625 0  1 0.375 0  0.375 1 0  1 0.125 0  0 0.875 0  0.625 1 0  1 0.625 0  0.2979288363930608 0.1201429454643536 0  0.410919540229885 0.7484605911330049 0  0.5325041980395562 0.878905151526474 0  0.4831670727569156 0.6331060043826487 0  0.1735997378973042 0.7204747378973043 0  0.2534919507575758 0.5772372159090909 0  0.2633928571428572 0.8876488095238095 0  0.8199404761904761 0.2730654761904762 0  0.75830270586982 0.3919383189517417 0  0.5750282248382511 0.4237522353023667 0  0.6008360210023379 0.2794828358598495 0  0.08163442644334186 0.6821295860397322 0  0.08333333333333333 0.1875 0  0.2028380815996574 0.08844602719988583 0  0.2766521142611967 0.2325436572164097 0  0.90625 0.78125 0  0.890625 0.890625 0  0.7545696325008384 0.8973565441669461 0  0.5625 0.08086590340834317 0  0.09077380952380953 0.09077380952380952 0  0.4610923478694773 0.209034015149656 0  0.7542527598351648 0.5248380520595106 0  0.6459235536037465 0.3619913988405765 0  0.7560381768882634 0.20506142233852 0  0.07073252688172042 0.8125 0  0.0924753097241701 0.9078102849914793 0  0.9292674731182795 0.1875 0  0.9075246902758297 0.09218971500852073 0  0.8125 0.07073252688172045 0  0.2400955776842301 0.7869705776842302 0  0.9121050213379069 0.2781978201831695 0  0.7916878157143976 0.7239689078571988 0  0.9345238095238094 0.4375 0  0.4375 0.9345238095238095 0  0.3725616989755203 0.6651895248862173 0  0.06536271996350887 0.5625 0  0.9348362560379583 0.5625 0  0.456646798987055 0.8277247094351965 0  0.1875 0.9355758238725954 0  0.6169761231634859 0.6939779188977889 0  0.6226854751147515 0.7827911461419014 0  0.3305695598137626 0.7901697871282585 0  0.5865305325818898 0.5101085479043448 0  0.6622701297028378 0.2177663989757395 0  0.1354166666666667 0.2591702279202279 0  0 0.3125 0  0.2094429575680048 0.3936361846162499 0  0.836666296419157 0.607917407161686 0  0.6875 1 0  0.214261555450504 0.6492551722020035 0  0 0.4375 0  0.07731537126068377 0.40625 0  0.3427725432967068 0.4879566233699599 0  0.3550792513951871 0.3331953632609953 0  0.4462473953896857 0.2887834789342508 0  0.4747801464819794 0.417386052030127 0  0.8229836475148948 0.4443292349237342 0  0.7322605135514757 0.8199240278289671 0  0.6756431877205955 0.5468989748126787 0  0.1968419507215863 0.5194573482612496 0  0.3285590277777778 0.9345238095238095 0  0.8125 1 0  0.4198917601920009 0.5134893045331258 0  0.5232405503206691 0.2595791787880157 0  1 0.9375 0  0.1987510870015086 0.3025185951894431 0  0.5625 1 0  0.6005390654136388 0.9228110509230952 0  0.6411254848194414 0.07704872765442942 0  0.3357233162523242 0.1855113224530532 0  0.6730653396610877 0.6393887462324165 0  0.310966987234063 0.6240019765311626 0  0.7368737836204349 0.07457755202327881 0  0.6192316414418171 0.1485238406378594 0  0.5432429670607106 0.678552703844006 0  0.4754371679695679 0.7103946803120881 0  0.07501324890749672 0.3043839897335739 0  0.5358146975860403 0.5688321463205916 0  0.3115271739500156 0.3982137365971444 0  0.3625191397122174 0.0767854603650549 0  0.5024029442563831 0.1264128223758444 0  0.4375 0 0  0.4699946908887376 0.06379961173775725 0  0.9375 0.71875 0  0.9272105898044465 0.635671179608893 0  0.9375 1 0  0.6690971819568612 0.9331530898202766 0  0.1073454944778885 0.7499206387638554 0  0.8699082999280406 0.2232403652524313 0  0.5773118091863964 0.3548027349159383 0  0.1354166666666667 0.1428571428571428 0  0.3125 0 0  0.8241684193077341 0.9257452995055244 0  0.4352314948354036 0.3586940847489378 0  0.4351301473778832 0.5819726043539077 0  0.8073232928518163 0.3419398170341962 0  0.7775949246947366 0.1298519409204575 0  0.6875 0 0  0.7413513991851041 0.457933324954483 0  0.939453125 0.841796875 0  0.5630355154606987 0.8171875156478349 0  0.9345238095238095 0.3461466592368577 0  0.9375 0 0  1 0.0625 0  0.0625 1 0  0 0.9375 0  0.06552178593177167 0.4969053669623468 0  0.1424866619031703 0.4130277709291224 0  0.1275287182444726 0.5422946908002588 0  0.2637686595586339 0.06413888464529549 0  0.2524263535491086 0.1697437503243817 0  0.7367218397988525 0.6888573970660841 0  0.0625 0 0  0 0.0625 0  0.8463594539285995 0.7578283617857982 0  0.3128751192101563 0.2851997374369947 0  0.4015281788351144 0.1806421385113692 0  0.1910251795116588 0.4553332197174453 0  0.287797471442006 0.5222621440543902 0  0.3962628745986055 0.8097380085535307 0  0.3505895299554843 0.7304878890838692 0  0.5019151500495276 0.9356042615328103 0  0.9374389419410134 0.4999931039076005 0  0.3125 1 0  0.1875 1 0  1 0.5625 0  0.4375 1 0  1 0.3125 0  1 0.4375 0  0.8125 0 0  1 0.1875 0  0.5625 0 0  0.1875 0 0  0 0.1875 0  0 0.5625 0  0 0.6875 0  0 0.8125 0  1 0.6875 0  1 0.8125 0  0.8021696218581627 0.6612893947866073 0  0.06154922295426143 0.6239401126946708 0  0.9359375 0.9359375 0  0.4666158024849896 0.7691515918155014 0  0.2318201265217025 0.7064974250277525 0  0.1565954253579966 0.6635489312486841 0  0.1598132503680848 0.7787147500325552 0  0.3146529991605639 0.8510876378205265 0  0.1461873209418733 0.05982804528877814 0  0.06109554988524315 0.2446551776247686 0  0.8054950308560754 0.5564226538848541 0  0.470541749491976 0.8853316336952531 0  0.6948472567465137 0.4042308563372457 0  0.8802828472348889 0.4658893256343853 0  0.6788075634946739 0.7974194205806069 0  0.2155048659603867 0.2428201584940968 0  0.8131223143423806 0.2132171049028394 0  0.4330798005432235 0.6671274900735726 0  0.6015279126162613 0.2187368078743274 0  0.8061636571464289 0.8703766630361714 0  0.7008230445061776 0.3478568388444072 0  0.8638466246958771 0.3147095987735538 0  0.204801534004265 0.8789209409594009 0  0.2449006736431132 0.9424182882803838 0  0.7611268409371427 0.2643056884799992 0  0.7552800864046191 0.7678006649959446 0  0.5983639638906616 0.864113435029236 0  0.1956559506814437 0.577281203577426 0  0.3527670268164207 0.1320469097565204 0  0.7530364577483248 0.3262386077083089 0  0.4535919187979363 0.4690107087451527 0  0.8824869791666666 0.8336588541666666 0  0.8814453125 0.9451171875 0  0.5582987942628019 0.622421666543858 0  0.6817532446064828 0.6939001801354731 0  0.3830295138888889 0.9450968952922078 0  0.4140603937012541 0.05211333372716105 0  0.5535864501303013 0.3060591985391672 0  0.6560130086346878 0.2729726562211558 0  0.890203140221684 0.5948314305427268 0  0.7043857725999024 0.593980890020804 0  0.5105843922695152 0.8016828014338627 0  0.05365910753708378 0.7315110031682004 0  0.616904573672261 0.4621186633436136 0  0.5338511646455415 0.387875898899613 0  0.5231769258947843 0.4477682463140762 0  0.650302973237622 0.7370722302085519 0  0.3927483139621257 0.4662414504529014 0  0.8034595960585199 0.4972538342758211 0  0.7738337841682438 0.9496376207663251 0  0.7193737507158268 0.954685447650112 0  0.482525916480686 0.5528257169991676 0  0.2533501157346781 0.2809495420003238 0  0.3118487924482243 0.5702930126570319 0  0.6257598847669529 0.4104163315430518 0  0.1354166666666667 0.1955605158730158 0  0.04166666666666666 0.15625 0  0.3956448985530264 0.6174149462065157 0  0.8102897701818546 0.3938784238208349 0  0.2641154190013625 0.8344469561943118 0  0.642852220770013 0.5068794586563659 0  0.05271458179508221 0.355846947336007 0  0.7021551360070266 0.8921457280225779 0  0.5692125776683765 0.1328512638850284 0  0.5206162811937602 0.04865158770992991 0  0.6001838442201555 0.04540556991297563 0  0.2597716608242787 0.4118346398477178 0  0.4040584599473195 0.3179589136784675 0  0.1480337679295207 0.8941560631483065 0  0.1344356707112281 0.9466251177415842 0  0.7114696411829317 0.4983917389078826 0  0.7585704698442475 0.5751926345944629 0  0.2189131956390871 0.04022068508159698 0  0.2476935455192043 0.1123642267635843 0  0.185995005654517 0.1365524537205238 0  0.6223414373308711 0.643380839165121 0  0.5732602596637543 0.7190051747306219 0  0.268358222364537 0.6586246524467934 0  0.3265879848129173 0.2369791782191225 0  0.1267095595787346 0.7034787238999181 0  0.1115202922226038 0.6421997933884982 0  0.3128688392940203 0.07260997451790079 0  0.550724900485678 0.9253360991633187 0  0.7142608810459105 0.2384904702214873 0  0.7045869185243887 0.1871826897887429 0  0.890625 0.734375 0  0.953125 0.765625 0  0.2111812642821677 0.8286209446459138 0  0.9590293078204457 0.09375 0  0.953431269039847 0.1435719386408004 0  0.04097069217955424 0.90625 0  0.04656873096015299 0.8564280613591996 0  0.1078743037981226 0.8541621766048062 0  0.8921256962018773 0.1458378233951939 0  0.8521576979194619 0.1084496634207678 0  0.8655663982740958 0.05464346096571447 0  0.04005659640905543 0.09375 0  0.1001448316533417 0.04246776244228261 
[...]
<PointData  Vectors="f_8984-1"> 
<DataArray  type="Float64"  Name="f_8984-1"  NumberOfComponents="3" format="ascii">4.9951326570907987e-03 8.3889143796950453e-03 0.0000000000000000e+00  -1.0318204167170104e-03 1.7149557944929675e-03 0.0000000000000000e+00  9.3146762564880279e-05 2.6159528890314391e-03 0.0000000000000000e+00  -2.1640658727670485e-04 -3.4834795714848562e-03 0.0000000000000000e+00  -2.5364364482654170e-03 3.9924229426302194e-03 0.0000000000000000e+00  6.5841353077328909e-04 5.2737946257158381e-04 0.0000000000000000e+00  -7.5126038882151309e-05 5.0858962003836618e-04 0.0000000000000000e+00  -1.0766055839690498e-03 2.2880300755388581e-03 0.0000000000000000e+00  1.1715497502421584e-04 5.4297102550947794e-05 0.0000000000000000e+00  -1.2936654487522884e-03 4.9319072856499691e-03 0.0000000000000000e+00  -3.6606192933690178e-03 5.5863875761003939e-03 0.0000000000000000e+00  8.7394688392613130e-04 -1.1324503501277550e-03 0.0000000000000000e+00  7.6026374703252889e-05 7.1560097544761704e-04 0.0000000000000000e+00  3.5083232409874109e-04 -7.5660547838951218e-04 0.0000000000000000e+00  -8.8789885652348086e-04 2.9943815661581880e-03 0.0000000000000000e+00  -9.7624121133683256e-05 1.1014009952458105e-03 0.0000000000000000e+00  -1.4199377675115971e-04 1.3660460274812162e-03 0.0000000000000000e+00  -5.3790199456841810e-04 1.7255513766916604e-03 0.0000000000000000e+00  -1.2333155900223435e-03 2.5200350516667216e-03 0.0000000000000000e+00  1.9088989325124323e-03 -1.3544568845927979e-03 0.0000000000000000e+00  2.0013090141092320e-04 -1.4029122359804689e-04 0.0000000000000000e+00  2.8697631200575177e-03 -6.4602267496277370e-03 0.0000000000000000e+00  -4.1533185021602937e-04 7.6190805234433345e-04 0.0000000000000000e+00  2.1852824983129167e-04 -3.2740673441934718e-03 0.0000000000000000e+00  -1.9420680551619283e-04 4.3921271658827876e-04 0.0000000000000000e+00  -1.9698327884516502e-04 6.1476532497236778e-04 0.0000000000000000e+00  2.7404373621342352e-04 -3.1284216898044420e-03 0.0000000000000000e+00  -1.2092016679990526e-03 1.0949578065518016e-03 0.0000000000000000e+00  -3.1474996765693008e-04 1.0185408621179331e-03 0.0000000000000000e+00  6.0371013029907506e-04 2.4655735502342028e-03 0.0000000000000000e+00  -3.7455215749535573e-04 -4.5913236969238782e-04 0.0000000000000000e+00  2.0069424611118564e-04 2.6277673469178842e-03 0.0000000000000000e+00  5.2726608782296958e-04 1.6106458384790483e-03 0.0000000000000000e+00  -5.3591932169167996e-05 9.0289020682580903e-04 0.0000000000000000e+00  1.8225712188908781e-04 -1.4652601223578980e-03 0.0000000000000000e+00  -1.1349925419560504e-03 3.0332792404615489e-03 0.0000000000000000e+00  -1.7999730605929376e-03 -3.4303329023723512e-03 0.0000000000000000e+00  -1.2253568696771859e-03 1.0217822671158647e-03 0.0000000000000000e+00  7.5212806103828989e-04 2.4079227788625025e-03 0.0000000000000000e+00  -9.7479725752386173e-05 5.6931665891215145e-04 0.0000000000000000e+00  -1.0671814260009645e-03 4.8870028493994463e-03 0.0000000000000000e+00  2.4241519107977234e-04 1.1640388783688003e-03 0.0000000000000000e+00  -1.7690836180684563e-03 4.5018222323236568e-03 0.0000000000000000e+00  1.4687829627923761e-03 -1.8459129963976414e-03 0.0000000000000000e+00  4.9250128940914889e-05 1.3013908014330310e-03 0.0000000000000000e+00  -6.3047630316067488e-04 2.0449374849629580e-03 0.0000000000000000e+00  -7.2379747500752288e-04 6.3100827730266885e-05 0.0000000000000000e+00  2.9125906640735597e-03 6.3023831400808362e-04 0.0000000000000000e+00  3.0613825139533713e-04 3.9470691171459356e-04 0.0000000000000000e+00  -9.5614974286924300e-05 6.0470798610637302e-03 0.0000000000000000e+00  -1.0686962327638217e-03 2.0573198224752504e-03 0.0000000000000000e+00  5.8998714552057729e-04 -9.2695176445464159e-04 0.0000000000000000e+00  -5.6537296851621511e-04 2.3741855767391421e-03 0.0000000000000000e+00  4.8876102166920581e-04 3.8233794969362430e-03 0.0000000000000000e+00  -2.5118535244902647e-04 5.2042114596361974e-03 0.0000000000000000e+00  8.4683074285997603e-05 -1.5434511967390307e-04 0.0000000000000000e+00  3.9261690870481748e-04 -1.4911971268390257e-03 0.0000000000000000e+00  8.3493178821320458e-04 -6.4030364959096072e-04 0.0000000000000000e+00  -7.1997602230487560e-04 1.8785900515372923e-03 0.0000000000000000e+00  6.7853868008954633e-05 9.7718641736789123e-04 0.0000000000000000e+00  -1.1539210067156112e-04 6.2694216997444437e-04 0.0000000000000000e+00  -3.0443072645423351e-03 4.4239046069880382e-03 0.0000000000000000e+00  1.1866849436355138e-03 -1.3348435162342208e-03 0.0000000000000000e+00  3.5168187304093730e-04 5.0445561408705942e-04 0.0000000000000000e+00  5.0789075118091412e-04 -2.2562617998367982e-03 0.0000000000000000e+00  -9.4609445098825951e-04 2.5293519567931347e-03 0.0000000000000000e+00  1.1682546911133721e-04 1.6339410599225455e-03 0.0000000000000000e+00  1.6647584744644089e-03 -2.1446742953930595e-03 0.0000000000000000e+00  1.5111176528089291e-04 -3.3446140852773825e-03 0.0000000000000000e+00  -1.9727914680581649e-03 7.6041679547598281e-04 0.0000000000000000e+00  -1.4408719778330281e-03 1.1921763569481831e-03 0.0000000000000000e+00  -9.0044010063768500e-04 1.7903880664078141e-03 0.0000000000000000e+00  -1.7290999543349644e-04 -2.6803240197494061e-03 0.0000000000000000e+00  3.6444263701109576e-04 -1.2668846846474657e-03 0.0000000000000000e+00  -6.0763673264050376e-04 -8.2144153697254717e-03 0.0000000000000000e+00  -1.6991768169891878e-03 3.9290449398391479e-03 0.0000000000000000e+00  -1.1731274536764683e-04 -1.0765274836137072e-04 0.0000000000000000e+00  -6.0420341197120302e-05 1.8018097164399578e-03 0.0000000000000000e+00  -1.0317615978390519e-04 1.0957818343093582e-04 0.0000000000000000e+00  7.6260595200151632e-04 -2.7916231901531940e-03 0.0000000000000000e+00  -1.0275413737861536e-03 7.1154983248105080e-04 0.0000000000000000e+00  8.5037448121337339e-04 -1.6811232842767799e-03 0.0000000000000000e+00  -2.4451360105461994e-04 1.7250172252044342e-03 0.0000000000000000e+00  4.7659899806549012e-04 1.2018001138510033e-03 0.0000000000000000e+00  -6.8546827538507342e-05 8.4789362804165921e-04 0.0000000000000000e+00  -1.3449302818243608e-03 1.8653063690574013e-04 0.0000000000000000e+00  1.1004564276139422e-03 -2.0031627846902786e-03 0.0000000000000000e+00  -2.7573524864203929e-04 1.5698149572473136e-03 0.0000000000000000e+00  1.1451904645228344e-03 -1.2036813768990687e-03 0.0000000000000000e+00  -1.4503978176959348e-03 5.7771543476358713e-04 0.0000000000000000e+00  9.8107480235741984e-04 -2.3303700593860785e-03 0.0000000000000000e+00  1.3967687486173531e-03 8.1431459278591889e-04 0.0000000000000000e+00  -1.2483424060637200e-06 5.5986549002021255e-04 0.0000000000000000e+00  -4.6642168644369069e-04 5.0992645595792664e-04 0.0000000000000000e+00  -4.9353788134730758e-04 5.4710122755802725e-04 0.0000000000000000e+00  3.1895365478017308e-04 -1.6032338067831285e-03 0.0000000000000000e+00  -9.4578033896092206e-06 -4.8701770320862979e-03 0.0000000000000000e+00  -4.0142923565773402e-04 3.7224894599211748e-04 0.0000000000000000e+00  -6.9528626245677955e-04 1.6921281335535168e-04 0.0000000000000000e+00  -2.9114398737824882e-04 5.1962472960288733e-05 0.0000000000000000e+00  1.0643147680308127e-04 1.3307495635407483e-03 0.0000000000000000e+00  -1.4758463802383459e-04 -7.8770991414792168e-04 0.0000000000000000e+00  -4.2193202052954196e-04 1.4599987586085795e-03 0.0000000000000000e+00  -4.6373401370012587e-04 2.0228957775461761e-03 0.0000000000000000e+00  1.3042469226842285e-03 2.4930596013486773e-04 0.0000000000000000e+00  4.2826653006568444e-04 2.5771922267517002e-03 0.0000000000000000e+00  -1.2534481562034945e-03 2.1053725719353384e-03 0.0000000000000000e+00  -1.2428146219435868e-03 3.4076299713066464e-03 0.0000000000000000e+00  -2.0357153510118059e-04 1.0237161002886594e-03 0.0000000000000000e+00  -2.2005369832436169e-04 9.0118380735341259e-04 0.0000000000000000e+00  1.1008338882607877e-03 -3.3678899461995863e-04 0.0000000000000000e+00  3.5660243762067616e-03 -8.2621922870324016e-04 0.0000000000000000e+00  -2.0484875210485158e-03 4.1833153528680377e-03 0.0000000000000000e+00  -5.2010351627800467e-04 -4.2492461687244892e-03 0.0000000000000000e+00  -1.9245935345120382e-03 -8.6784034081486790e-04 0.0000000000000000e+00  -5.8363273648064811e-04 -8.2093072085560838e-04 0.0000000000000000e+00  7.5647583391365032e-04 5.1951836415332370e-03 0.0000000000000000e+00  -2.0382184752576216e-04 -1.0502006063193199e-03 0.0000000000000000e+00  -2.1073673412184014e-05 6.4332303682801655e-04 0.0000000000000000e+00  -8.9604762013056590e-04 1.6555302513525140e-03 0.0000000000000000e+00  -1.9092027076216219e-03 5.3905169409901424e-05 0.0000000000000000e+00  3.4829944682336275e-04 -5.6814425571079978e-04 0.0000000000000000e+00  -3.3196012533792679e-04 2.5641774613008698e-03 0.0000000000000000e+00  -3.7289150047389061e-04 -2.3663077770159913e-04 0.0000000000000000e+00  2.4016206691030864e-03 -2.7576507894385713e-03 0.0000000000000000e+00  6.8633344241688992e-05 2.0073571425127876e-03 0.0000000000000000e+00  -1.1344833825999061e-03 4.1278240447170005e-04 0.0000000000000000e+00  2.6966232780998391e-05 5.5436670925184100e-04 0.0000000000000000e+00  3.1456903833323280e-06 5.8259958209768369e-04 0.0000000000000000e+00  -1.4824505190469089e-03 1.5746726467990588e-03 0.0000000000000000e+00  1.7129275446623720e-03 -1.6035598939354028e-03 0.0000000000000000e+00  -3.5420231748691096e-05 -1.6744553090955054e-04 0.0000000000000000e+00  4.7742215083019872e-04 -1.5323045102351919e-03 0.0000000000000000e+00  -5.9954370363786381e-04 3.8447620103390645e-03 0.0000000000000000e+00  -4.2977494763114877e-03 1.9699647087159555e-03 0.0000000000000000e+00  -6.9620339097948159e-04 1.7811283589729359e-03 0.0000000000000000e+00  -1.4762587701152059e-04 3.4993417166923283e-03 0.0000000000000000e+00  -6.0950972487294319e-04 3.4911767614017532e-03 0.0000000000000000e+00  -3.4676796899127458e-04 -7.4118510853844657e-04 0.0000000000000000e+00  -1.4532887986308724e-04 2.7368124458768805e-03 0.0000000000000000e+00  3.2185311539101283e-03 4.8968666193317323e-04 0.0000000000000000e+00  -7.7866605887256840e-04 -8.6764512310456767e-04 0.0000000000000000e+00  -1.7093685436322618e-03 5.9209349721016232e-03 0.0000000000000000e+00  5.8076879800711984e-03 -3.2543717282997502e-03 0.0000000000000000e+00  -6.6021411089652333e-06 8.1040556510137188e-04 0.0000000000000000e+00  2.9100741899249462e-06 5.4098574143923413e-04 0.0000000000000000e+00  -4.0683382838257694e-04 3.4815384369137423e-03 0.0000000000000000e+00  4.0381717174276703e-05 4.0456111562742989e-04 0.0000000000000000e+00  2.5089120125387464e-03 -3.0662719734194212e-03 0.0000000000000000e+00  2.2870822893744720e-03 -3.0103527621500930e-03 0.0000000000000000e+00  -9.2798872169154011e-05 3.5919465320378720e-03 0.0000000000000000e+00  -2.1592986612321324e-03 4.7863436220644401e-03 0.0000000000000000e+00  -1.2972845754692947e-03 6.7044737531350759e-03 0.0000000000000000e+00  2.5566482614720122e-04 1.3263114434225506e-03 0.0000000000000000e+00  -5.4745738330470792e-03 3.4564852965634021e-04 0.0000000000000000e+00  -3.9094772134768807e-04 5.3778211461121841e-04 0.0000000000000000e+00  -2.4624815505181613e-05 1.5911474883366465e-03 0.0000000000000000e+00  -9.4720522260693008e-04 1.2698686915523756e-03 0.0000000000000000e+00  9.9809502770271995e-04 5.4981101014641058e-03 0.0000000000000000e+00  -3.8228074545439036e-04 -6.6674537391211140e-04 0.0000000000000000e+00  3.6425180944290247e-04 6.0377489229167074e-05 0.0000000000000000e+00  1.9501508606346399e-04 3.3406936628027455e-05 0.0000000000000000e+00  5.5420479115831408e-04 -8.4355352287003571e-04 0.0000000000000000e+00  -8.8791105271745260e-04 1.9190935566417977e-03 0.0000000000000000e+00  1.0923611866077232e-03 -1.7745326399598344e-03 0.0000000000000000e+00  1.0759724578611823e-03 -1.2443907022711021e-03 0.0000000000000000e+00  1.3030539151596158e-03 -4.6289998180542105e-04 0.0000000000000000e+00  7.2060638840561603e-03 1.6944630356840835e-03 0.0000000000000000e+00  4.4648351097739264e-03 -3.8255322981829458e-03 0.0000000000000000e+00  2.1127186979576318e-03 -5.3929781386688053e-03 0.0000000000000000e+00  -1.6926763519011130e-03 3.2028080286041153e-03 0.0000000000000000e+00  -1.2050613018541869e-04 5.6328144538401710e-03 0.0000000000000000e+00  3.0103794091220696e-04 1.2895362613655219e-03 0.0000000000000000e+00  -1.5980475416622266e-03 4.3212013742549423e-03 0.0000000000000000e+00  2.5596693756908262e-03 -8.8875714355552207e-04 0.0000000000000000e+00  -8.1546834350765935e-05 6.6174482788282027e-04 0.0000000000000000e+00  1.1125085697383523e-03 -9.4473257577893418e-04 0.0000000000000000e+00  7.0880615680101280e-04 1.7714424605022668e-03 0.0000000000000000e+00  2.4149710676730019e-03 -2.3509694288670006e-03 0.0000000000000000e+00  1.3400362198366558e-03 -2.9643410920111835e-03 0.0000000000000000e+00  8.2411897964328759e-04 6.6731262078567220e-04 0.0000000000000000e+00  -6.6770355099524527e-04 -1.8918159274738857e-04 0.0000000000000000e+00  6.2654690370268372e-04 1.4162360524892922e-04 0.0000000000000000e+00  -1.0510597753489182e-04 9.4845411161625438e-04 0.0000000000000000e+00  8.4870519889446519e-04 -6.7235244313332439e-04 0.0000000000000000e+00  3.8451950545391754e-04 -9.0159639737710069e-04 0.0000000000000000e+00  -2.6316083171817615e-05 4.4094485219451257e-04 0.0000000000000000e+00  1.3330394518538524e-04 -6.5470571528663103e-04 0.0000000000000000e+00  4.4806975963727642e-04 -3.9819027981799027e-04 0.0000000000000000e+00  5.8284841151321181e-04 -2.4551369320089034e-04 0.0000000000000000e+00  -5.2631487177758095e-04 3.6538650877803360e-03 0.0000000000000000e+00  8.2860418197422034e-04 -9.8454404291052513e-04 0.0000000000000000e+00  -1.3223517825576233e-03 5.2214409154191363e-03 0.0000000000000000e+00  6.5874627429845199e-04 7.5624982049027466e-03 0.0000000000000000e+00  -3.3173622664230164e-03 1.9296906454238062e-03 0.0000000000000000e+00  -3.6631882954776417e-04 3.5275386257981986e-03 0.0000000000000000e+00  3.1414107521493284e-03 -1.3768194143448662e-03 0.0000000000000000e+00  -3.3645836547203131e-03 5.0708340257381926e-03 0.0000000000000000e+00  -1.7616288795131274e-04 7.9787280910854300e-04 0.0000000000000000e+00  1.4270725017795209e-04 1.4403534237145035e-03 0.0000000000000000e+00  -7.5666020465999212e-04 8.9293868211244467e-04 0.0000000000000000e+00  1.3873530852696106e-03 -5.6474278298780578e-03 0.0000000000000000e+00  -1.0311273555155286e-04 -5.4926592188665941e-04 0.0000000000000000e+00  -5.6308972342259528e-05 1.8859304072339216e-03 0.0000000000000000e+00  -1.3008713330819603e-03 1.0064258377754094e-03 0.0000000000000000e+00  1.8333007633277913e-03 -2.1327607458865201e-03 0.0000000000000000e+00  4.5628161091344635e-04 1.5963231505228601e-04 0.0000000000000000e+00  -9.4415775309553596e-04 4.4031711604874854e-04 0.0000000000000000e+00  -1.2387254096787362e-03 4.0429971041522801e-03 0.0000000000000000e+00  2.8146153859719457e-03 -7.3410891271158863e-04 0.0000000000000000e+00  -2.4778057429419728e-04 7.8016359554550338e-04 0.0000000000000000e+00  -4.8114508896570274e-04 7.0871644691698809e-05 0.0000000000000000e+00  -5.7670078590066397e-04 3.8032052109149054e-03 0.0000000000000000e+00  2.8012194018972239e-04 1.7767223635738248e-03 0.0000000000000000e+00  3.3711628280806748e-04 6.9991291167281321e-04 0.0000000000000000e+00  -1.6259523116838675e-03 2.8080149442995233e-03 0.0000000000000000e+00  -1.1197267201688663e-03 -1.4606046542719913e-03 0.0000000000000000e+00  -1.2441773558656553e-03 4.2239012283908821e-04 0.0000000000000000e+00  -2.9105740951073744e-04 4.0853705528142558e-03 0.0000000000000000e+00  -2.2730734722872315e-04 4.0209484122545234e-04 0.0000000000000000e+00  6.0284668100198319e-04 3.8930052272268664e-03 0.0000000000000000e+00  -6.8446519961266568e-04 1.1181554797905858e-03 0.0000000000000000e+00  -6.5883627930243328e-04 3.0553298731269820e-03 0.0000000000000000e+00  -1.0820736791388613e-03 7.1514524301548440e-04 0.0000000000000000e+00  4.9977875003022346e-04 -5.5140605303895121e-04 0.0000000000000000e+00  -2.6191368170143658e-05 5.9990167690532998e-04 0.0000000000000000e+00  2.0536296489142159e-04 4.1236867470839471e-04 0.0000000000000000e+00  2.2923306188642919e-04 5.5530453428428279e-04 0.0000000000000000e+00  -1.2021441416114494e-03 2.5112925619274330e-03 0.0000000000000000e+00  5.0888120563191176e-04 -2.5384558285459573e-03 0.0000000000000000e+00  -6.8681282349489280e-04 1.7029108487688609e-03 0.0000000000000000e+00  -7.7532344418444373e-06 8.4479886325265936e-04 0.0000000000000000e+00  -1.2850357245555739e-03 2.2852732158475529e-03 0.0000000000000000e+00  1.4673508921977891e-04 -7.1484136654593729e-04 0.0000000000000000e+00  2.1108739216656121e-04 7.2267168433418885e-04 0.0000000000000000e+00  3.2289506920491520e-04 9.0167827447643133e-04 0.0000000000000000e+00  2.8219847220408031e-03 6.8746793599928999e-03 0.0000000000000000e+00  -8.6168733958766645e-04 2.3816775563290848e-03 0.0000000000000000e+00  -8.1795391245068939e-04 -2.0094713787825605e-03 0.0000000000000000e+00  -4.7925651037799787e-05 7.1479850961655761e-04 0.0000000000000000e+00  -5.6702082263795223e-05 2.1074645177258261e-03 0.0000000000000000e+00  -5.1291390042422860e-05 -4.5431298062782179e-04 0.0000000000000000e+00  -7.5578144222450102e-04 8.1846060691833939e-05 0.0000000000000000e+00  -1.1756320200422726e-03 1.2383099295582845e-03 0.0000000000000000e+00  6.4060400191435162e-04 -2.0704012423393625e-03 0.0000000000000000e+00  2.7855322829937121e-03 -2.4547914563032005e-03 0.0000000000000000e+00  3.2301157192223245e-04 -2.7704158217576366e-04 0.0000000000000000e+00  -3.1565398956290438e-04 2.1190956677282543e-04 0.0000000000000000e+00  -4.4814470236149843e-04 8.7859854214259283e-04 0.0000000000000000e+00  -1.0729276248700012e-04 6.2797940948742267e-04 0.0000000000000000e+00  -1.2047983587111416e-04 7.6577827929966808e-04 0.0000000000000000e+00  -3.1014792408731121e-03 3.1338332401488530e-03 0.0000000000000000e+00  -1.8041307343545992e-03 6.1650941302751512e-03 0.0000000000000000e+00  -1.7955685978153537e-04 -3.2815408156696459e-03 0.0000000000000000e+00  -1.7821683674070969e-03 3.3565655777965152e-03 0.0000000000000000e+00  -1.2309741365645692e-05 -5.2908465106283140e-03 0.0000000000000000e+00  4.4914542847648850e-03 -4.3353704030686608e-03 0.0000000000000000e+00  6.5536534529546321e-04 1.3996872694968738e-03 0.0000000000000000e+00  -1.0534468085470719e-04 5.7360133897160868e-04 0.0000000000000000e+00  1.0388114857676170e-03 -7.8039371693391230e-04 0.0000000000000000e+00  2.5453056706759372e-04 -1.9560316551490405e-03 0.0000000000000000e+00  -1.8212646652302317e-03 1.6981764559451423e-03 0.0000000000000000e+00  -8.0921090967630855e-05 6.5795804540424128e-04 0.0000000000000000e+00  -5.6485111033642078e-04 -4.6576647037902255e-03 0.0000000000000000e+00  3.5153221363919025e-03 -1.1058578579745706e-04 0.0000000000000000e+00  -6.5035734153691578e-05 -1.9551139819777678e-03 0.0000000000000000e+00  1.5479653404436222e-03 -6.9007534675926624e-03 0.0000000000000000e+00  7.4293079282121812e-04 1.2216881268537979e-03 0.0000000000000000e+00  -3.6874994330772482e-04 2.8119263893514679e-03 0.0000000000000000e+00  5.2657313449423456e-04 -8.7820499084740916e-04 0.0000000000000000e+00  1.9099940651494151e-03 1.3585715318045191e-04 0.0000000000000000e+00  -4.2065874152329066e-05 -2.9005569367100670e-04 0.0000000000000000e+00  -3.3143508809434833e-03 6.7672127079386113e-03 0.0000000000000000e+00  1.2145728698995394e-04 3.2895249775892780e-03 0.0000000000000000e+00  1.2987549667832594e-03 7.4248488998229145e-03 0.0000000000000000e+00  1.2002898317671206e-04 -3.4840825315628221e-04 0.0000000000000000e+00  8.3768221337433992e-05 6.7327107389742390e-04 0.0000000000000000e+00  1.5848959907742907e-03 -8.7098268342501273e-04 0.0000000000000000e+00  -3.5307233586922963e-07 -1.8892650517632413e-04 0.0000000000000000e+00  -1.9143326045174369e-04 6.9834832083924829e-04 0.0000000000000000e+00  -8.8095948651351411e-04 1.51213