<?xml version="1.0"?>
<VTKFile type="UnstructuredGrid"  version="0.1"  >
<UnstructuredGrid>
<Piece  NumberOfPoints="1385" NumberOfCells="2640">
<Points>
<DataArray  type="Float64"  NumberOfComponents="3"  format="ascii">0 0 0  1 0 0  1 1 0  0 1 0  0.5 0 0  1 0.5 0  0.5 1 0  0 0.5 0  0.5 0.5 0  0 0.25 0  0.25 0 0  0.25 1 0  0 0.75 0  1 0.25 0  0.75 0 0  1 0.75 0  0.75 1 0  0.7083333333333333 0.2916666666666667 0  0.2916666666666666 0.7083333333333334 0  0.375 0.25 0  0.75 0.625 0  0.2569444444444444 0.4652777777777778 0  0.5366379310344828 0.7535919540229885 0  0.1875 0.1875 0  0.8125 0.8125 0  0.869047619047619 0.375 0  0.1450441919191919 0.6052714646464646 0  0.375 0.8690476190476191 0  0.5526960784313725 0.1825980392156862 0  0.8385416666666666 0.1614583333333334 0  0.1614583333333333 0.8385416666666667 0  0.6736111111111112 0.4652777777777778 0  0.1367521367521368 0.3477564102564102 0  0.6570970491253563 0.8648656830417855 0  0.5102479397556124 0.3386260301221938 0  0.3654513888888889 0.5737847222222222 0  0.6929750044954185 0.1362784921584263 0  0.388576102743835 0.411911725237599 0  0.6091269841269842 0.5942460317460317 0  0.875 0.6875 0  0.427278890279516 0.119889445139758 0  0.8544456845238095 0.5213913690476191 0  0.125 0 0  0 0.125 0  1 0.875 0  0.875 1 0  0.1280008648150532 0.4769292340226777 0  0.2695382451711197 0.3321750950221553 0  0.7031567235715964 0.7447810921428012 0  0.625 0 0  0.375 0 0  0.125 1 0  0.875 0 0  0 0.375 0  0 0.625 0  1 0.375 0  0.375 1 0  1 0.125 0  0 0.875 0  0.625 1 0  1 0.625 0  0.2979288363930608 0.1201429454643536 0  0.410919540229885 0.7484605911330049 0  0.5325041980395562 0.878905151526474 0  0.4831670727569156 0.6331060043826487 0  0.1735997378973042 0.7204747378973043 0  0.2534919507575758 0.5772372159090909 0  0.2633928571428572 0.8876488095238095 0  0.8199404761904761 0.2730654761904762 0  0.75830270586982 0.3919383189517417 0  0.5750282248382511 0.4237522353023667 0  0.6008360210023379 0.2794828358598495 0  0.08163442644334186 0.6821295860397322 0  0.08333333333333333 0.1875 0  0.2028380815996574 0.08844602719988583 0  0.2766521142611967 0.2325436572164097 0  0.90625 0.78125 0  0.890625 0.890625 0  0.7545696325008384 0.8973565441669461 0  0.5625 0.08086590340834317 0  0.09077380952380953 0.09077380952380952 0  0.4610923478694773 0.209034015149656 0  0.7542527598351648 0.5248380520595106 0  0.6459235536037465 0.3619913988405765 0  0.7560381768882634 0.20506142233852 0  0.07073252688172042 0.8125 0  0.0924753097241701 0.9078102849914793 0  0.9292674731182795 0.1875 0  0.9075246902758297 0.09218971500852073 0  0.8125 0.07073252688172045 0  0.2400955776842301 0.7869705776842302 0  0.9121050213379069 0.2781978201831695 0  0.7916878157143976 0.7239689078571988 0  0.9345238095238094 0.4375 0  0.4375 0.9345238095238095 0  0.3725616989755203 0.6651895248862173 0  0.06536271996350887 0.5625 0  0.9348362560379583 0.5625 0  0.456646798987055 0.8277247094351965 0  0.1875 0.9355758238725954 0  0.6169761231634859 0.6939779188977889 0  0.6226854751147515 0.7827911461419014 0  0.3305695598137626 0.7901697871282585 0  0.5865305325818898 0.5101085479043448 0  0.6622701297028378 0.2177663989757395 0  0.1354166666666667 0.2591702279202279 0  0 0.3125 0  0.2094429575680048 0.3936361846162499 0  0.836666296419157 0.607917407161686 0  0.6875 1 0  0.214261555450504 0.6492551722020035 0  0 0.4375 0  0.07731537126068377 0.40625 0  0.3427725432967068 0.4879566233699599 0  0.3550792513951871 0.3331953632609953 0  0.4462473953896857 0.2887834789342508 0  0.4747801464819794 0.417386052030127 0  0.8229836475148948 0.4443292349237342 0  0.7322605135514757 0.8199240278289671 0  0.6756431877205955 0.5468989748126787 0  0.1968419507215863 0.5194573482612496 0  0.3285590277777778 0.9345238095238095 0  0.8125 1 0  0.4198917601920009 0.5134893045331258 0  0.5232405503206691 0.2595791787880157 0  1 0.9375 0  0.1987510870015086 0.3025185951894431 0  0.5625 1 0  0.6005390654136388 0.9228110509230952 0  0.6411254848194414 0.07704872765442942 0  0.3357233162523242 0.1855113224530532 0  0.6730653396610877 0.6393887462324165 0  0.310966987234063 0.6240019765311626 0  0.7368737836204349 0.07457755202327881 0  0.6192316414418171 0.1485238406378594 0  0.5432429670607106 0.678552703844006 0  0.4754371679695679 0.7103946803120881 0  0.07501324890749672 0.3043839897335739 0  0.5358146975860403 0.5688321463205916 0  0.3115271739500156 0.3982137365971444 0  0.3625191397122174 0.0767854603650549 0  0.5024029442563831 0.1264128223758444 0  0.4375 0 0  0.4699946908887376 0.06379961173775725 0  0.9375 0.71875 0  0.9272105898044465 0.635671179608893 0  0.9375 1 0  0.6690971819568612 0.9331530898202766 0  0.1073454944778885 0.7499206387638554 0  0.8699082999280406 0.2232403652524313 0  0.5773118091863964 0.3548027349159383 0  0.1354166666666667 0.1428571428571428 0  0.3125 0 0  0.8241684193077341 0.9257452995055244 0  0.4352314948354036 0.3586940847489378 0  0.4351301473778832 0.5819726043539077 0  0.8073232928518163 0.3419398170341962 0  0.7775949246947366 0.1298519409204575 0  0.6875 0 0  0.7413513991851041 0.457933324954483 0  0.939453125 0.841796875 0  0.5630355154606987 0.8171875156478349 0  0.9345238095238095 0.3461466592368577 0  0.9375 0 0  1 0.0625 0  0.0625 1 0  0 0.9375 0  0.06552178593177167 0.4969053669623468 0  0.1424866619031703 0.4130277709291224 0  0.1275287182444726 0.5422946908002588 0  0.2637686595586339 0.06413888464529549 0  0.2524263535491086 0.1697437503243817 0  0.7367218397988525 0.6888573970660841 0  0.0625 0 0  0 0.0625 0  0.8463594539285995 0.7578283617857982 0  0.3128751192101563 0.2851997374369947 0  0.4015281788351144 0.1806421385113692 0  0.1910251795116588 0.4553332197174453 0  0.287797471442006 0.5222621440543902 0  0.3962628745986055 0.8097380085535307 0  0.3505895299554843 0.7304878890838692 0  0.5019151500495276 0.9356042615328103 0  0.9374389419410134 0.4999931039076005 0  0.3125 1 0  0.1875 1 0  1 0.5625 0  0.4375 1 0  1 0.3125 0  1 0.4375 0  0.8125 0 0  1 0.1875 0  0.5625 0 0  0.1875 0 0  0 0.1875 0  0 0.5625 0  0 0.6875 0  0 0.8125 0  1 0.6875 0  1 0.8125 0  0.8021696218581627 0.6612893947866073 0  0.06154922295426143 0.6239401126946708 0  0.9359375 0.9359375 0  0.4666158024849896 0.7691515918155014 0  0.2318201265217025 0.7064974250277525 0  0.1565954253579966 0.6635489312486841 0  0.1598132503680848 0.7787147500325552 0  0.3146529991605639 0.8510876378205265 0  0.1461873209418733 0.05982804528877814 0  0.06109554988524315 0.2446551776247686 0  0.8054950308560754 0.5564226538848541 0  0.470541749491976 0.8853316336952531 0  0.6948472567465137 0.4042308563372457 0  0.8802828472348889 0.4658893256343853 0  0.6788075634946739 0.7974194205806069 0  0.2155048659603867 0.2428201584940968 0  0.8131223143423806 0.2132171049028394 0  0.4330798005432235 0.6671274900735726 0  0.6015279126162613 0.2187368078743274 0  0.8061636571464289 0.8703766630361714 0  0.7008230445061776 0.3478568388444072 0  0.8638466246958771 0.3147095987735538 0  0.204801534004265 0.8789209409594009 0  0.2449006736431132 0.9424182882803838 0  0.7611268409371427 0.2643056884799992 0  0.7552800864046191 0.7678006649959446 0  0.5983639638906616 0.864113435029236 0  0.1956559506814437 0.577281203577426 0  0.3527670268164207 0.1320469097565204 0  0.7530364577483248 0.3262386077083089 0  0.4535919187979363 0.4690107087451527 0  0.8824869791666666 0.8336588541666666 0  0.8814453125 0.9451171875 0  0.5582987942628019 0.622421666543858 0  0.6817532446064828 0.6939001801354731 0  0.3830295138888889 0.9450968952922078 0  0.4140603937012541 0.05211333372716105 0  0.5535864501303013 0.3060591985391672 0  0.6560130086346878 0.2729726562211558 0  0.890203140221684 0.5948314305427268 0  0.7043857725999024 0.593980890020804 0  0.5105843922695152 0.8016828014338627 0  0.05365910753708378 0.7315110031682004 0  0.616904573672261 0.4621186633436136 0  0.5338511646455415 0.387875898899613 0  0.5231769258947843 0.4477682463140762 0  0.650302973237622 0.7370722302085519 0  0.3927483139621257 0.4662414504529014 0  0.8034595960585199 0.4972538342758211 0  0.7738337841682438 0.9496376207663251 0  0.7193737507158268 0.954685447650112 0  0.482525916480686 0.5528257169991676 0  0.2533501157346781 0.2809495420003238 0  0.3118487924482243 0.5702930126570319 0  0.6257598847669529 0.4104163315430518 0  0.1354166666666667 0.1955605158730158 0  0.04166666666666666 0.15625 0  0.3956448985530264 0.6174149462065157 0  0.8102897701818546 0.3938784238208349 0  0.2641154190013625 0.8344469561943118 0  0.642852220770013 0.5068794586563659 0  0.05271458179508221 0.355846947336007 0  0.7021551360070266 0.8921457280225779 0  0.5692125776683765 0.1328512638850284 0  0.5206162811937602 0.04865158770992991 0  0.6001838442201555 0.04540556991297563 0  0.2597716608242787 0.4118346398477178 0  0.4040584599473195 0.3179589136784675 0  0.1480337679295207 0.8941560631483065 0  0.1344356707112281 0.9466251177415842 0  0.7114696411829317 0.4983917389078826 0  0.7585704698442475 0.5751926345944629 0  0.2189131956390871 0.04022068508159698 0  0.2476935455192043 0.1123642267635843 0  0.185995005654517 0.1365524537205238 0  0.6223414373308711 0.643380839165121 0  0.5732602596637543 0.7190051747306219 0  0.268358222364537 0.6586246524467934 0  0.3265879848129173 0.2369791782191225 0  0.1267095595787346 0.7034787238999181 0  0.1115202922226038 0.6421997933884982 0  0.3128688392940203 0.07260997451790079 0  0.550724900485678 0.9253360991633187 0  0.7142608810459105 0.2384904702214873 0  0.7045869185243887 0.1871826897887429 0  0.890625 0.734375 0  0.953125 0.765625 0  0.2111812642821677 0.8286209446459138 0  0.9590293078204457 0.09375 0  0.953431269039847 0.1435719386408004 0  0.04097069217955424 0.90625 0  0.04656873096015299 0.8564280613591996 0  0.1078743037981226 0.8541621766048062 0  0.8921256962018773 0.1458378233951939 0  0.8521576979194619 0.1084496634207678 0  0.8655663982740958 0.05464346096571447 0  0.04005659640905543 0.09375 0  0.1001448316533417 0.04246776244228261 
[...]
<PointData  Vectors="f_10219-1"> 
<DataArray  type="Float64"  Name="f_10219-1"  NumberOfComponents="3" format="ascii">4.9928996011485019e-03 8.4136947624941054e-03 0.0000000000000000e+00  -1.0342038392010965e-03 2.0884676821792290e-03 0.0000000000000000e+00  1.1986352630173180e-04 4.4302272213645301e-03 0.0000000000000000e+00  -2.2542638164755550e-04 -2.0422826181587224e-03 0.0000000000000000e+00  -2.5460524289120726e-03 4.1740425133357482e-03 0.0000000000000000e+00  6.6051899171194186e-04 1.6105987573750888e-03 0.0000000000000000e+00  -7.5942699737772566e-05 2.1376864785751576e-03 0.0000000000000000e+00  -1.0715890738880805e-03 3.0112345023293554e-03 0.0000000000000000e+00  1.1736437799749757e-04 9.6144004372796053e-04 0.0000000000000000e+00  -1.3012525530115282e-03 5.2989826086199364e-03 0.0000000000000000e+00  -3.6597076027367953e-03 5.6858575675650357e-03 0.0000000000000000e+00  8.7744599557385071e-04 3.9278306364569620e-04 0.0000000000000000e+00  7.2017211239191244e-05 1.8019462846446210e-03 0.0000000000000000e+00  3.5364029335687233e-04 -3.8528014180206564e-05 0.0000000000000000e+00  -8.8850881353555672e-04 3.2712807133003022e-03 0.0000000000000000e+00  -1.0568995897494824e-04 2.5435159324147822e-03 0.0000000000000000e+00  -1.4857330511137333e-04 3.0809643761293311e-03 0.0000000000000000e+00  -5.3558177384371278e-04 2.4093122541656948e-03 0.0000000000000000e+00  -1.2354654123922619e-03 3.6565468685331773e-03 0.0000000000000000e+00  1.9124268124514196e-03 -8.5378551334027168e-04 0.0000000000000000e+00  2.0193744626929183e-04 1.0369215962053237e-03 0.0000000000000000e+00  2.8736422196132738e-03 -5.6962020009387231e-03 0.0000000000000000e+00  -4.1382891591121420e-04 2.0462722693536336e-03 0.0000000000000000e+00  2.1989118291651857e-04 -2.9381858123250729e-03 0.0000000000000000e+00  -1.9480911964989784e-04 1.9087162672004542e-03 0.0000000000000000e+00  -1.9853182895402765e-04 1.4730985148457623e-03 0.0000000000000000e+00  2.7560069950826309e-04 -2.1982687943469903e-03 0.0000000000000000e+00  -1.2115565436527248e-03 2.4909210034330474e-03 0.0000000000000000e+00  -3.1359308546320534e-04 1.4896122984654767e-03 0.0000000000000000e+00  6.0542283729833656e-04 3.0065457607830752e-03 0.0000000000000000e+00  -3.7325415400889456e-04 8.1357610531684855e-04 0.0000000000000000e+00  2.0185869823988853e-04 3.5489610611655720e-03 0.0000000000000000e+00  5.2621345830771652e-04 2.1692055494523296e-03 0.0000000000000000e+00  -5.4264402202760728e-05 2.3970640001831382e-03 0.0000000000000000e+00  1.8436846576512289e-04 -7.9055176134916331e-04 0.0000000000000000e+00  -1.1340539535815621e-03 4.0080657553455039e-03 0.0000000000000000e+00  -1.8011455813821816e-03 -2.9833023509593885e-03 0.0000000000000000e+00  -1.2265344571861807e-03 1.7640409627086423e-03 0.0000000000000000e+00  7.5382452702975637e-04 3.4961645126441571e-03 0.0000000000000000e+00  -9.7873567792654530e-05 1.8838071095750532e-03 0.0000000000000000e+00  -1.0707159993313558e-03 5.2257217590973275e-03 0.0000000000000000e+00  2.4324215026587858e-04 2.2309937609946789e-03 0.0000000000000000e+00  -1.7934463439730727e-03 4.5540661224557312e-03 0.0000000000000000e+00  1.4377956891476790e-03 -1.6644594171971788e-03 0.0000000000000000e+00  3.6699845107013079e-05 2.9257469200167636e-03 0.0000000000000000e+00  -6.4802687024459460e-04 3.8110755200694646e-03 0.0000000000000000e+00  -7.2725736377906984e-04 8.0413633294444946e-04 0.0000000000000000e+00  2.9160770646315666e-03 1.2149515389319242e-03 0.0000000000000000e+00  3.0620821189590835e-04 1.7278457182321736e-03 0.0000000000000000e+00  -9.7354346139030216e-05 6.2831287858610037e-03 0.0000000000000000e+00  -1.0734436051157538e-03 2.2001636304755422e-03 0.0000000000000000e+00  5.9686589046507984e-04 5.6235593202377506e-04 0.0000000000000000e+00  -5.6577536826648818e-04 2.6941309360040051e-03 0.0000000000000000e+00  4.8496762279447159e-04 4.3631380895731101e-03 0.0000000000000000e+00  -2.5845855016739063e-04 6.1141045356029964e-03 0.0000000000000000e+00  8.3929855213483746e-05 7.4609276664506434e-04 0.0000000000000000e+00  3.9337221933715587e-04 8.1211972377157559e-05 0.0000000000000000e+00  8.3992318823525075e-04 -9.9236764087309208e-05 0.0000000000000000e+00  -7.1622633549519449e-04 3.1466717915962336e-03 0.0000000000000000e+00  6.3932582432919653e-05 2.6493484121923512e-03 0.0000000000000000e+00  -1.1739168852079290e-04 1.8898238240675274e-03 0.0000000000000000e+00  -3.0489376134616481e-03 4.7116480807871276e-03 0.0000000000000000e+00  1.1883496417497449e-03 -1.0111779063430294e-04 0.0000000000000000e+00  3.5126434262823720e-04 1.9704715391065386e-03 0.0000000000000000e+00  5.0915562031526699e-04 -1.1646188560618220e-03 0.0000000000000000e+00  -9.4661132226886218e-04 3.6470325691285556e-03 0.0000000000000000e+00  1.1719033383634407e-04 2.5621636097621133e-03 0.0000000000000000e+00  1.6699173658371314e-03 -7.6843065724324395e-04 0.0000000000000000e+00  1.5164712772707328e-04 -2.6562383872170176e-03 0.0000000000000000e+00  -1.9749344398636787e-03 1.6076257706569552e-03 0.0000000000000000e+00  -1.4416258493134331e-03 2.0176580360349089e-03 0.0000000000000000e+00  -9.0137060586306368e-04 2.4201822798708044e-03 0.0000000000000000e+00  -1.7334956397773512e-04 -1.6663799420492112e-03 0.0000000000000000e+00  3.6503304713252408e-04 -9.6362469778498599e-04 0.0000000000000000e+00  -6.0925441617889846e-04 -8.0302019153290684e-03 0.0000000000000000e+00  -1.7004417793891364e-03 4.3790191388414891e-03 0.0000000000000000e+00  -1.1726071477175128e-04 1.3464879601364855e-03 0.0000000000000000e+00  -6.1385786884686488e-05 3.4204003696061947e-03 0.0000000000000000e+00  -1.0449545559022971e-04 1.6780447844690434e-03 0.0000000000000000e+00  7.6296956632003346e-04 -2.4809830173353176e-03 0.0000000000000000e+00  -1.0308633754885445e-03 8.7249227170447521e-04 0.0000000000000000e+00  8.5039792602032240e-04 -1.2114755819794926e-03 0.0000000000000000e+00  -2.4480128039462018e-04 2.7595298799958333e-03 0.0000000000000000e+00  4.7734868130813198e-04 1.9657703369056968e-03 0.0000000000000000e+00  -6.9000284654254266e-05 1.4227068880671063e-03 0.0000000000000000e+00  -1.3444562783113787e-03 1.3827279929439010e-03 0.0000000000000000e+00  1.1057480769779556e-03 -6.6609007474094319e-04 0.0000000000000000e+00  -2.7231803568669765e-04 2.1772059206300711e-03 0.0000000000000000e+00  1.1536091275998084e-03 -7.4413251602617339e-04 0.0000000000000000e+00  -1.4536651095268869e-03 9.6854348731892825e-04 0.0000000000000000e+00  9.8144988162276797e-04 -1.1031213811967169e-03 0.0000000000000000e+00  1.4002739264785732e-03 1.5520459484757944e-03 0.0000000000000000e+00  1.6983450587959451e-06 1.8940706735085145e-03 0.0000000000000000e+00  -4.6686385160481811e-04 1.4808919535244753e-03 0.0000000000000000e+00  -4.9300070472535680e-04 2.0469770143650510e-03 0.0000000000000000e+00  3.2092241211136843e-04 -5.0830496220657505e-04 0.0000000000000000e+00  -8.7679845321335728e-06 -4.0615776462126097e-03 0.0000000000000000e+00  -4.0442244920573076e-04 1.5186761495563537e-03 0.0000000000000000e+00  -6.9543633815154129e-04 1.5366035374494000e-03 0.0000000000000000e+00  -2.9004946527909402e-04 1.4584288430892775e-03 0.0000000000000000e+00  1.0833074290220391e-04 2.5632300456435741e-03 0.0000000000000000e+00  -1.4623796742415989e-04 5.7053288895041188e-04 0.0000000000000000e+00  -4.2146048483597027e-04 2.7274929958883433e-03 0.0000000000000000e+00  -4.6489040813625431e-04 2.9815634770609199e-03 0.0000000000000000e+00  1.3037506767572822e-03 8.0797480048058561e-04 0.0000000000000000e+00  4.2779373985563052e-04 3.0130115975931914e-03 0.0000000000000000e+00  -1.2567405299800920e-03 2.5579203765991546e-03 0.0000000000000000e+00  -1.2448181499652572e-03 4.0629484147675643e-03 0.0000000000000000e+00  -2.0384571758515191e-04 2.2137804671262442e-03 0.0000000000000000e+00  -2.2240009121794746e-04 2.5988373882680823e-03 0.0000000000000000e+00  1.1007567839350968e-03 6.8057165323014970e-04 0.0000000000000000e+00  3.5594200090676435e-03 -1.9204602007513700e-04 0.0000000000000000e+00  -2.0492629031588373e-03 4.8057145138713188e-03 0.0000000000000000e+00  -5.2084289571852028e-04 -3.4201947081196854e-03 0.0000000000000000e+00  -1.9265588380578563e-03 -2.5485689008127466e-04 0.0000000000000000e+00  -5.8178022208452325e-04 -2.3928632113487478e-04 0.0000000000000000e+00  7.5864184879020251e-04 5.9784842529815238e-03 0.0000000000000000e+00  -2.0627271973374151e-04 -1.1214329591567639e-04 0.0000000000000000e+00  -2.0701618399228774e-05 2.0948082433853402e-03 0.0000000000000000e+00  -8.9629555678918710e-04 2.6982801163187476e-03 0.0000000000000000e+00  -1.9108152585479376e-03 8.8293797467104806e-04 0.0000000000000000e+00  3.4766163691105859e-04 8.8226736024786209e-04 0.0000000000000000e+00  -3.3983274053769994e-04 4.2981717399032671e-03 0.0000000000000000e+00  -3.7329245382227257e-04 6.5591207487983240e-04 0.0000000000000000e+00  2.4059070109146764e-03 -2.1923332315638010e-03 0.0000000000000000e+00  5.1802189990408053e-05 3.7228745878059018e-03 0.0000000000000000e+00  -1.1355233466480103e-03 9.2494855460042861e-04 0.0000000000000000e+00  2.4952643064022945e-05 2.2007369225812770e-03 0.0000000000000000e+00  1.4900234755037278e-06 2.1256550256090515e-03 0.0000000000000000e+00  -1.4836829941442043e-03 1.9178392036042723e-03 0.0000000000000000e+00  1.7157326083133331e-03 -1.2107922441945524e-03 0.0000000000000000e+00  -3.4432248562155381e-05 1.0033487685423949e-03 0.0000000000000000e+00  4.8103702517580634e-04 -5.1479841800903051e-04 0.0000000000000000e+00  -5.9929867065450573e-04 4.2184543992464466e-03 0.0000000000000000e+00  -4.3045765619051397e-03 2.4140229447463394e-03 0.0000000000000000e+00  -6.9829337021572776e-04 2.9636611195242185e-03 0.0000000000000000e+00  -1.4546328989625373e-04 4.6975663959939757e-03 0.0000000000000000e+00  -6.1335134188691997e-04 3.9704897481860173e-03 0.0000000000000000e+00  -3.4607893882423920e-04 2.7580659959896962e-04 0.0000000000000000e+00  -1.4445418340837987e-04 3.4342821307043942e-03 0.0000000000000000e+00  3.2198554227358647e-03 7.2449454859099295e-04 0.0000000000000000e+00  -7.7621576840893904e-04 -5.0092690723371812e-04 0.0000000000000000e+00  -1.7095297142483402e-03 6.0797909914067534e-03 0.0000000000000000e+00  5.8191697024869904e-03 -3.0147428681078425e-03 0.0000000000000000e+00  -7.4671810886655894e-06 2.1878525001307490e-03 0.0000000000000000e+00  5.9529708004474498e-07 1.7959648993402480e-03 0.0000000000000000e+00  -4.2306028214345341e-04 5.2741849980239919e-03 0.0000000000000000e+00  4.0614125990238873e-05 1.9752937095322415e-03 0.0000000000000000e+00  2.5130993150382112e-03 -1.9443707062534823e-03 0.0000000000000000e+00  2.2914666724349387e-03 -2.3723971779906145e-03 0.0000000000000000e+00  -9.1491014506208540e-05 4.3212889428278847e-03 0.0000000000000000e+00  -2.1589883782246007e-03 5.0559410861128933e-03 0.0000000000000000e+00  -1.3028224263924367e-03 6.8242735651145078e-03 0.0000000000000000e+00  2.5175218317135943e-04 2.9501421965347839e-03 0.0000000000000000e+00  -5.4840687615513618e-03 1.0253154961301417e-03 0.0000000000000000e+00  -3.9161383185173048e-04 1.5441487638659323e-03 0.0000000000000000e+00  -2.3141810128595807e-05 2.3833450379533057e-03 0.0000000000000000e+00  -9.4673998017148916e-04 1.7444959812741695e-03 0.0000000000000000e+00  9.9964925907764109e-04 5.7538923435552147e-03 0.0000000000000000e+00  -3.8067082304850923e-04 2.6241057334880965e-04 0.0000000000000000e+00  3.5865042793958250e-04 1.6027093961603401e-03 0.0000000000000000e+00  1.9689859951307009e-04 1.4223192762431525e-03 0.0000000000000000e+00  5.5365569839856870e-04 -1.1830811228057602e-05 0.0000000000000000e+00  -8.9113557680516606e-04 2.2697090652062596e-03 0.0000000000000000e+00  1.0957946866378631e-03 -1.3244810964406842e-03 0.0000000000000000e+00  1.0822690468636432e-03 2.3642014890817072e-04 0.0000000000000000e+00  1.2977962227982132e-03 8.9450331077662009e-04 0.0000000000000000e+00  7.2089048080167823e-03 2.4416646077890219e-03 0.0000000000000000e+00  4.4701949996402476e-03 -3.1805683802449839e-03 0.0000000000000000e+00  2.1127118069908016e-03 -4.5699550830964018e-03 0.0000000000000000e+00  -1.7047148004365441e-03 3.3822328793975381e-03 0.0000000000000000e+00  -1.1973339216320481e-04 5.9775177566196228e-03 0.0000000000000000e+00  3.0308784988963215e-04 2.5538444892773903e-03 0.0000000000000000e+00  -1.6291421078040301e-03 4.3690627924073090e-03 0.0000000000000000e+00  2.5310505557325121e-03 -7.8986474479822736e-04 0.0000000000000000e+00  -8.0429902612140112e-05 2.0652566029143483e-03 0.0000000000000000e+00  1.1140527236799054e-03 -4.2018258188595572e-04 0.0000000000000000e+00  7.1154150920229654e-04 2.1860922503054879e-03 0.0000000000000000e+00  2.4192781352349369e-03 -1.6284538465587352e-03 0.0000000000000000e+00  1.3420489162514436e-03 -2.1041670810807733e-03 0.0000000000000000e+00  8.2530384504200121e-04 1.9839629985654410e-03 0.0000000000000000e+00  -6.6892858164490103e-04 9.9638810817279317e-04 0.0000000000000000e+00  6.2573295132872710e-04 1.6607629390748111e-03 0.0000000000000000e+00  -1.0279998251808832e-04 2.0036000611343475e-03 0.0000000000000000e+00  8.5085029201622609e-04 8.8049143951654941e-04 0.0000000000000000e+00  3.8788698149464580e-04 6.0378776894924732e-04 0.0000000000000000e+00  -2.3084083944856191e-05 1.6156703834939779e-03 0.0000000000000000e+00  1.3392977881135219e-04 9.3968740323600712e-04 0.0000000000000000e+00  4.5069387064377187e-04 4.1150875157789605e-04 0.0000000000000000e+00  5.8538651184051943e-04 7.4274411692756013e-04 0.0000000000000000e+00  -5.1614045580756249e-04 3.9573350996063997e-03 0.0000000000000000e+00  8.3450277834611671e-04 -3.5607371280020589e-04 0.0000000000000000e+00  -1.3224486699182959e-03 5.4318468540648836e-03 0.0000000000000000e+00  6.4408916869793977e-04 7.6403967586320858e-03 0.0000000000000000e+00  -3.3294983406167988e-03 2.2037608935520873e-03 0.0000000000000000e+00  -3.6995355891833296e-04 4.3374759424705932e-03 0.0000000000000000e+00  3.1482675041010107e-03 -3.8685671677508252e-04 0.0000000000000000e+00  -3.3613373397984197e-03 6.2429656535846183e-03 0.0000000000000000e+00  -1.8145264369142646e-04 2.1512078576197071e-03 0.0000000000000000e+00  1.2928616382510300e-04 2.9733424039791942e-03 0.0000000000000000e+00  -7.5723848361470636e-04 2.1434677052706887e-03 0.0000000000000000e+00  1.3997248966861615e-03 -4.7398266840935881e-03 0.0000000000000000e+00  -1.0345381107589112e-04 1.1060674630646683e-03 0.0000000000000000e+00  -5.8092936415855270e-05 3.1744889187592120e-03 0.0000000000000000e+00  -1.3009294384904962e-03 2.1165700948424580e-03 0.0000000000000000e+00  1.8350864663347257e-03 -1.1202107963787741e-03 0.0000000000000000e+00  4.5759069995650174e-04 1.3447290651036625e-03 0.0000000000000000e+00  -9.4649909511760450e-04 1.7883023659452054e-03 0.0000000000000000e+00  -1.2435457382867919e-03 4.1657224520555468e-03 0.0000000000000000e+00  2.8167622180722443e-03 -3.5675961260769255e-04 0.0000000000000000e+00  -2.4762998816467321e-04 1.8799317197179923e-03 0.0000000000000000e+00  -4.8111948029634004e-04 1.5179297602887661e-03 0.0000000000000000e+00  -5.7641142165443433e-04 4.6460792723579687e-03 0.0000000000000000e+00  2.8236737227878381e-04 2.7720776507987313e-03 0.0000000000000000e+00  3.3817497246267734e-04 2.1008602870409149e-03 0.0000000000000000e+00  -1.6243930134765823e-03 3.2526253819619927e-03 0.0000000000000000e+00  -1.1205300744762314e-03 -8.5152811091340850e-04 0.0000000000000000e+00  -1.2421146424619386e-03 1.5462290664604670e-03 0.0000000000000000e+00  -2.8837014623433847e-04 4.6260208340968166e-03 0.0000000000000000e+00  -2.2902254931490146e-04 1.9589688899607975e-03 0.0000000000000000e+00  6.0369135202595716e-04 4.6603402677947783e-03 0.0000000000000000e+00  -6.8340770003183114e-04 1.8906844771300498e-03 0.0000000000000000e+00  -6.5667306795109070e-04 4.4050138836029861e-03 0.0000000000000000e+00  -1.0762939128461779e-03 2.1487433963819835e-03 0.0000000000000000e+00  5.0135433878920239e-04 1.1199481160574032e-04 0.0000000000000000e+00  -2.5580539651405250e-05 1.9877072867790458e-03 0.0000000000000000e+00  2.0737948900016821e-04 1.8801580293653850e-03 0.0000000000000000e+00  2.3115474838405315e-04 1.4633164836672648e-03 0.0000000000000000e+00  -1.2044763256777503e-03 2.8360224610788085e-03 0.0000000000000000e+00  5.1072135504417711e-04 -1.7971381204412444e-03 0.0000000000000000e+00  -6.8732259255984448e-04 2.5547313928794180e-03 0.0000000000000000e+00  -6.7093538609113909e-06 2.3725774028567851e-03 0.0000000000000000e+00  -1.2960017799690366e-03 3.9434519334649951e-03 0.0000000000000000e+00  1.4835334933449560e-04 3.8869528447919741e-04 0.0000000000000000e+00  2.1284149653912510e-04 1.9729198851512414e-03 0.0000000000000000e+00  3.3241584301688673e-04 2.3836565184654269e-03 0.0000000000000000e+00  2.8228699485733817e-03 7.0807908751290265e-03 0.0000000000000000e+00  -8.6300118700577497e-04 3.0331044242983547e-03 0.0000000000000000e+00  -8.1713431559617578e-04 -1.3764480934524538e-03 0.0000000000000000e+00  -4.9219425502316518e-05 1.9030610723229252e-03 0.0000000000000000e+00  -5.4674453950719244e-05 3.2291801115042203e-03 0.0000000000000000e+00  -5.2127385795793218e-05 8.9542827446632638e-04 0.0000000000000000e+00  -7.5461000644706181e-04 1.1526423532572756e-03 0.0000000000000000e+00  -1.1757896787182697e-03 2.1324227535071869e-03 0.0000000000000000e+00  6.4210099711571903e-04 -1.3149202562216626e-03 0.0000000000000000e+00  2.7901526701186079e-03 -1.6182323379312375e-03 0.0000000000000000e+00  3.2218665183372797e-04 1.0249614600708987e-03 0.0000000000000000e+00  -3.1462580754441108e-04 1.0310337848647127e-03 0.0000000000000000e+00  -4.4816395058190671e-04 1.8911384341077780e-03 0.0000000000000000e+00  -1.1081727774305949e-04 2.2507846533967486e-03 0.0000000000000000e+00  -1.2362312728666206e-04 2.3746367399033875e-03 0.0000000000000000e+00  -3.1033568521162567e-03 4.1150146575077446e-03 0.0000000000000000e+00  -1.8054945441626478e-03 6.6737498007931042e-03 0.0000000000000000e+00  -1.8091871134640522e-04 -2.3461192633958548e-03 0.0000000000000000e+00  -1.7828205524831333e-03 4.1832024839351216e-03 0.0000000000000000e+00  -9.9245103436692292e-06 -4.9618688912425202e-03 0.0000000000000000e+00  4.4926021708127494e-03 -4.0945630556990130e-03 0.0000000000000000e+00  6.5692194809031208e-04 2.4373588987665947e-03 0.0000000000000000e+00  -1.0506228356571836e-04 1.4407317670441261e-03 0.0000000000000000e+00  1.0412659880006847e-03 5.2235814805027007e-04 0.0000000000000000e+00  2.5491290368001487e-04 -9.9034279969897302e-04 0.0000000000000000e+00  -1.8241413697581447e-03 2.2264359041333707e-03 0.0000000000000000e+00  -8.3234543485722744e-05 2.2037512424285671e-03 0.0000000000000000e+00  -5.6428188256047178e-04 -4.2634409605821202e-03 0.0000000000000000e+00  3.5222767063787888e-03 1.1960077341778818e-04 0.0000000000000000e+00  -6.1821387780731235e-05 -1.7040506288119269e-03 0.0000000000000000e+00  1.5490633479304581e-03 -6.2198847483159615e-03 0.0000000000000000e+00  7.4420387716235699e-04 1.8347760908639908e-03 0.0000000000000000e+00  -3.6641491278625188e-04 4.1613133119924499e-03 0.0000000000000000e+00  5.2960755322620299e-04 5.1989879225995607e-04 0.0000000000000000e+00  1.9125855613291009e-03 1.1164239585858241e-03 0.0000000000000000e+00  -4.2929612911367420e-05 8.2486202720318577e-04 0.0000000000000000e+00  -3.3292484021649410e-03 6.8885931372203854e-03 0.0000000000000000e+00  1.1941315793852621e-04 3.5464157691778094e-03 0.0000000000000000e+00  1.3018015799281838e-03 7.7032939160928899e-03 0.0000000000000000e+00  1.2132371514764163e-04 8.0584676050043718e-04 0.0000000000000000e+00  8.4018451863925123e-05 1.9233753468731612e-03 0.0000000000000000e+00  1.5870369129223566e-03 1.8203187594097018e-04 0.0000000000000000e+00  5.0812359324666932e-07 2.7999665245804269e-04 0.0000000000000000e+00  -1.9258492753317492e-04 1.7660960335569445e-03 0.0000000000000000e+00  -8.7881477168690156e-04 2.4863358552451474e-03 0.0000000000000000