<?xml version="1.0"?>
<VTKFile type="UnstructuredGrid"  version="0.1"  >
<UnstructuredGrid>
<Piece  NumberOfPoints="1385" NumberOfCells="2640">
<Points>
<DataArray  type="Float64"  NumberOfComponents="3"  format="ascii">0 0 0  1 0 0  1 1 0  0 1 0  0.5 0 0  1 0.5 0  0.5 1 0  0 0.5 0  0.5 0.5 0  0 0.25 0  0.25 0 0  0.25 1 0  0 0.75 0  1 0.25 0  0.75 0 0  1 0.75 0  0.75 1 0  0.7083333333333333 0.2916666666666667 0  0.2916666666666666 0.7083333333333334 0  0.375 0.25 0  0.75 0.625 0  0.2569444444444444 0.4652777777777778 0  0.5366379310344828 0.7535919540229885 0  0.1875 0.1875 0  0.8125 0.8125 0  0.869047619047619 0.375 0  0.1450441919191919 0.6052714646464646 0  0.375 0.8690476190476191 0  0.5526960784313725 0.1825980392156862 0  0.8385416666666666 0.1614583333333334 0  0.1614583333333333 0.8385416666666667 0  0.6736111111111112 0.4652777777777778 0  0.1367521367521368 0.3477564102564102 0  0.6570970491253563 0.8648656830417855 0  0.5102479397556124 0.3386260301221938 0  0.3654513888888889 0.5737847222222222 0  0.6929750044954185 0.1362784921584263 0  0.388576102743835 0.411911725237599 0  0.6091269841269842 0.5942460317460317 0  0.875 0.6875 0  0.427278890279516 0.119889445139758 0  0.8544456845238095 0.5213913690476191 0  0.125 0 0  0 0.125 0  1 0.875 0  0.875 1 0  0.1280008648150532 0.4769292340226777 0  0.2695382451711197 0.3321750950221553 0  0.7031567235715964 0.7447810921428012 0  0.625 0 0  0.375 0 0  0.125 1 0  0.875 0 0  0 0.375 0  0 0.625 0  1 0.375 0  0.375 1 0  1 0.125 0  0 0.875 0  0.625 1 0  1 0.625 0  0.2979288363930608 0.1201429454643536 0  0.410919540229885 0.7484605911330049 0  0.5325041980395562 0.878905151526474 0  0.4831670727569156 0.6331060043826487 0  0.1735997378973042 0.7204747378973043 0  0.2534919507575758 0.5772372159090909 0  0.2633928571428572 0.8876488095238095 0  0.8199404761904761 0.2730654761904762 0  0.75830270586982 0.3919383189517417 0  0.5750282248382511 0.4237522353023667 0  0.6008360210023379 0.2794828358598495 0  0.08163442644334186 0.6821295860397322 0  0.08333333333333333 0.1875 0  0.2028380815996574 0.08844602719988583 0  0.2766521142611967 0.2325436572164097 0  0.90625 0.78125 0  0.890625 0.890625 0  0.7545696325008384 0.8973565441669461 0  0.5625 0.08086590340834317 0  0.09077380952380953 0.09077380952380952 0  0.4610923478694773 0.209034015149656 0  0.7542527598351648 0.5248380520595106 0  0.6459235536037465 0.3619913988405765 0  0.7560381768882634 0.20506142233852 0  0.07073252688172042 0.8125 0  0.0924753097241701 0.9078102849914793 0  0.9292674731182795 0.1875 0  0.9075246902758297 0.09218971500852073 0  0.8125 0.07073252688172045 0  0.2400955776842301 0.7869705776842302 0  0.9121050213379069 0.2781978201831695 0  0.7916878157143976 0.7239689078571988 0  0.9345238095238094 0.4375 0  0.4375 0.9345238095238095 0  0.3725616989755203 0.6651895248862173 0  0.06536271996350887 0.5625 0  0.9348362560379583 0.5625 0  0.456646798987055 0.8277247094351965 0  0.1875 0.9355758238725954 0  0.6169761231634859 0.6939779188977889 0  0.6226854751147515 0.7827911461419014 0  0.3305695598137626 0.7901697871282585 0  0.5865305325818898 0.5101085479043448 0  0.6622701297028378 0.2177663989757395 0  0.1354166666666667 0.2591702279202279 0  0 0.3125 0  0.2094429575680048 0.3936361846162499 0  0.836666296419157 0.607917407161686 0  0.6875 1 0  0.214261555450504 0.6492551722020035 0  0 0.4375 0  0.07731537126068377 0.40625 0  0.3427725432967068 0.4879566233699599 0  0.3550792513951871 0.3331953632609953 0  0.4462473953896857 0.2887834789342508 0  0.4747801464819794 0.417386052030127 0  0.8229836475148948 0.4443292349237342 0  0.7322605135514757 0.8199240278289671 0  0.6756431877205955 0.5468989748126787 0  0.1968419507215863 0.5194573482612496 0  0.3285590277777778 0.9345238095238095 0  0.8125 1 0  0.4198917601920009 0.5134893045331258 0  0.5232405503206691 0.2595791787880157 0  1 0.9375 0  0.1987510870015086 0.3025185951894431 0  0.5625 1 0  0.6005390654136388 0.9228110509230952 0  0.6411254848194414 0.07704872765442942 0  0.3357233162523242 0.1855113224530532 0  0.6730653396610877 0.6393887462324165 0  0.310966987234063 0.6240019765311626 0  0.7368737836204349 0.07457755202327881 0  0.6192316414418171 0.1485238406378594 0  0.5432429670607106 0.678552703844006 0  0.4754371679695679 0.7103946803120881 0  0.07501324890749672 0.3043839897335739 0  0.5358146975860403 0.5688321463205916 0  0.3115271739500156 0.3982137365971444 0  0.3625191397122174 0.0767854603650549 0  0.5024029442563831 0.1264128223758444 0  0.4375 0 0  0.4699946908887376 0.06379961173775725 0  0.9375 0.71875 0  0.9272105898044465 0.635671179608893 0  0.9375 1 0  0.6690971819568612 0.9331530898202766 0  0.1073454944778885 0.7499206387638554 0  0.8699082999280406 0.2232403652524313 0  0.5773118091863964 0.3548027349159383 0  0.1354166666666667 0.1428571428571428 0  0.3125 0 0  0.8241684193077341 0.9257452995055244 0  0.4352314948354036 0.3586940847489378 0  0.4351301473778832 0.5819726043539077 0  0.8073232928518163 0.3419398170341962 0  0.7775949246947366 0.1298519409204575 0  0.6875 0 0  0.7413513991851041 0.457933324954483 0  0.939453125 0.841796875 0  0.5630355154606987 0.8171875156478349 0  0.9345238095238095 0.3461466592368577 0  0.9375 0 0  1 0.0625 0  0.0625 1 0  0 0.9375 0  0.06552178593177167 0.4969053669623468 0  0.1424866619031703 0.4130277709291224 0  0.1275287182444726 0.5422946908002588 0  0.2637686595586339 0.06413888464529549 0  0.2524263535491086 0.1697437503243817 0  0.7367218397988525 0.6888573970660841 0  0.0625 0 0  0 0.0625 0  0.8463594539285995 0.7578283617857982 0  0.3128751192101563 0.2851997374369947 0  0.4015281788351144 0.1806421385113692 0  0.1910251795116588 0.4553332197174453 0  0.287797471442006 0.5222621440543902 0  0.3962628745986055 0.8097380085535307 0  0.3505895299554843 0.7304878890838692 0  0.5019151500495276 0.9356042615328103 0  0.9374389419410134 0.4999931039076005 0  0.3125 1 0  0.1875 1 0  1 0.5625 0  0.4375 1 0  1 0.3125 0  1 0.4375 0  0.8125 0 0  1 0.1875 0  0.5625 0 0  0.1875 0 0  0 0.1875 0  0 0.5625 0  0 0.6875 0  0 0.8125 0  1 0.6875 0  1 0.8125 0  0.8021696218581627 0.6612893947866073 0  0.06154922295426143 0.6239401126946708 0  0.9359375 0.9359375 0  0.4666158024849896 0.7691515918155014 0  0.2318201265217025 0.7064974250277525 0  0.1565954253579966 0.6635489312486841 0  0.1598132503680848 0.7787147500325552 0  0.3146529991605639 0.8510876378205265 0  0.1461873209418733 0.05982804528877814 0  0.06109554988524315 0.2446551776247686 0  0.8054950308560754 0.5564226538848541 0  0.470541749491976 0.8853316336952531 0  0.6948472567465137 0.4042308563372457 0  0.8802828472348889 0.4658893256343853 0  0.6788075634946739 0.7974194205806069 0  0.2155048659603867 0.2428201584940968 0  0.8131223143423806 0.2132171049028394 0  0.4330798005432235 0.6671274900735726 0  0.6015279126162613 0.2187368078743274 0  0.8061636571464289 0.8703766630361714 0  0.7008230445061776 0.3478568388444072 0  0.8638466246958771 0.3147095987735538 0  0.204801534004265 0.8789209409594009 0  0.2449006736431132 0.9424182882803838 0  0.7611268409371427 0.2643056884799992 0  0.7552800864046191 0.7678006649959446 0  0.5983639638906616 0.864113435029236 0  0.1956559506814437 0.577281203577426 0  0.3527670268164207 0.1320469097565204 0  0.7530364577483248 0.3262386077083089 0  0.4535919187979363 0.4690107087451527 0  0.8824869791666666 0.8336588541666666 0  0.8814453125 0.9451171875 0  0.5582987942628019 0.622421666543858 0  0.6817532446064828 0.6939001801354731 0  0.3830295138888889 0.9450968952922078 0  0.4140603937012541 0.05211333372716105 0  0.5535864501303013 0.3060591985391672 0  0.6560130086346878 0.2729726562211558 0  0.890203140221684 0.5948314305427268 0  0.7043857725999024 0.593980890020804 0  0.5105843922695152 0.8016828014338627 0  0.05365910753708378 0.7315110031682004 0  0.616904573672261 0.4621186633436136 0  0.5338511646455415 0.387875898899613 0  0.5231769258947843 0.4477682463140762 0  0.650302973237622 0.7370722302085519 0  0.3927483139621257 0.4662414504529014 0  0.8034595960585199 0.4972538342758211 0  0.7738337841682438 0.9496376207663251 0  0.7193737507158268 0.954685447650112 0  0.482525916480686 0.5528257169991676 0  0.2533501157346781 0.2809495420003238 0  0.3118487924482243 0.5702930126570319 0  0.6257598847669529 0.4104163315430518 0  0.1354166666666667 0.1955605158730158 0  0.04166666666666666 0.15625 0  0.3956448985530264 0.6174149462065157 0  0.8102897701818546 0.3938784238208349 0  0.2641154190013625 0.8344469561943118 0  0.642852220770013 0.5068794586563659 0  0.05271458179508221 0.355846947336007 0  0.7021551360070266 0.8921457280225779 0  0.5692125776683765 0.1328512638850284 0  0.5206162811937602 0.04865158770992991 0  0.6001838442201555 0.04540556991297563 0  0.2597716608242787 0.4118346398477178 0  0.4040584599473195 0.3179589136784675 0  0.1480337679295207 0.8941560631483065 0  0.1344356707112281 0.9466251177415842 0  0.7114696411829317 0.4983917389078826 0  0.7585704698442475 0.5751926345944629 0  0.2189131956390871 0.04022068508159698 0  0.2476935455192043 0.1123642267635843 0  0.185995005654517 0.1365524537205238 0  0.6223414373308711 0.643380839165121 0  0.5732602596637543 0.7190051747306219 0  0.268358222364537 0.6586246524467934 0  0.3265879848129173 0.2369791782191225 0  0.1267095595787346 0.7034787238999181 0  0.1115202922226038 0.6421997933884982 0  0.3128688392940203 0.07260997451790079 0  0.550724900485678 0.9253360991633187 0  0.7142608810459105 0.2384904702214873 0  0.7045869185243887 0.1871826897887429 0  0.890625 0.734375 0  0.953125 0.765625 0  0.2111812642821677 0.8286209446459138 0  0.9590293078204457 0.09375 0  0.953431269039847 0.1435719386408004 0  0.04097069217955424 0.90625 0  0.04656873096015299 0.8564280613591996 0  0.1078743037981226 0.8541621766048062 0  0.8921256962018773 0.1458378233951939 0  0.8521576979194619 0.1084496634207678 0  0.8655663982740958 0.05464346096571447 0  0.04005659640905543 0.09375 0  0.1001448316533417 0.04246776244228261 
[...]
<PointData  Vectors="f_9934-1"> 
<DataArray  type="Float64"  Name="f_9934-1"  NumberOfComponents="3" format="ascii">4.9923638050047882e-03 8.4073501918553485e-03 0.0000000000000000e+00  -1.0341388559158829e-03 2.0030007380677545e-03 0.0000000000000000e+00  1.1580431220456933e-04 4.0137044044232014e-03 0.0000000000000000e+00  -2.2415164104162789e-04 -2.3740628683441385e-03 0.0000000000000000e+00  -2.5448663505191513e-03 4.1304569757292381e-03 0.0000000000000000e+00  6.5994855692354617e-04 1.3602793939395429e-03 0.0000000000000000e+00  -7.5876123198337928e-05 1.7613117217508071e-03 0.0000000000000000e+00  -1.0718283284678633e-03 2.8439506390246544e-03 0.0000000000000000e+00  1.1720170418651611e-04 7.5230910285117207e-04 0.0000000000000000e+00  -1.2997839096603805e-03 5.2141916423619483e-03 0.0000000000000000e+00  -3.6584427971174385e-03 5.6620576185166969e-03 0.0000000000000000e+00  8.7675608043844542e-04 3.8515832831015990e-05 0.0000000000000000e+00  7.1956500810519981e-05 1.5512734101992269e-03 0.0000000000000000e+00  3.5309143099848222e-04 -2.0477355305169754e-04 0.0000000000000000e+00  -8.8872623211173592e-04 3.2067275600847099e-03 0.0000000000000000e+00  -1.0428911110668942e-04 2.2101370324498540e-03 0.0000000000000000e+00  -1.4745984930081214e-04 2.6838138061170808e-03 0.0000000000000000e+00  -5.3565886909410262e-04 2.2517723742206818e-03 0.0000000000000000e+00  -1.2351121086157778e-03 3.3946175744687121e-03 0.0000000000000000e+00  1.9118260405407831e-03 -9.6890576595941953e-04 0.0000000000000000e+00  2.0183173736488809e-04 7.6523467734123025e-04 0.0000000000000000e+00  2.8726045253907291e-03 -5.8717040197690156e-03 0.0000000000000000e+00  -4.1395412866131301e-04 1.7498116008954573e-03 0.0000000000000000e+00  2.1961177335231468e-04 -3.0159087655997094e-03 0.0000000000000000e+00  -1.9477296324164949e-04 1.5695372653053768e-03 0.0000000000000000e+00  -1.9838898428014488e-04 1.2752494380973947e-03 0.0000000000000000e+00  2.7522771141862763e-04 -2.4120092011494102e-03 0.0000000000000000e+00  -1.2111627530960044e-03 2.1691730038465814e-03 0.0000000000000000e+00  -3.1367972331904136e-04 1.3813542152567946e-03 0.0000000000000000e+00  6.0503749164684314e-04 2.8815647350604141e-03 0.0000000000000000e+00  -3.7357009289315469e-04 5.2051644019630232e-04 0.0000000000000000e+00  2.0163568460360536e-04 3.3366389170329091e-03 0.0000000000000000e+00  5.2628068579208443e-04 2.0403916754410554e-03 0.0000000000000000e+00  -5.4158213763180448e-05 2.0529801950583005e-03 0.0000000000000000e+00  1.8405568828111106e-04 -9.4629156123644332e-04 0.0000000000000000e+00  -1.1339992603809146e-03 3.7841424940960669e-03 0.0000000000000000e+00  -1.8008248713686512e-03 -3.0859420173641357e-03 0.0000000000000000e+00  -1.2262584174842946e-03 1.5930612179972849e-03 0.0000000000000000e+00  7.5345336318585732e-04 3.2455043219378130e-03 0.0000000000000000e+00  -9.7729826083589513e-05 1.5808255823576878e-03 0.0000000000000000e+00  -1.0700827038345785e-03 5.1480007858534637e-03 0.0000000000000000e+00  2.4306024195462227e-04 1.9850729033569852e-03 0.0000000000000000e+00  -1.7893515151405862e-03 4.5396161971401616e-03 0.0000000000000000e+00  1.4414199084370816e-03 -1.7065757431861681e-03 0.0000000000000000e+00  3.8549838387014245e-05 2.5503480303206167e-03 0.0000000000000000e+00  -6.4580499747540418e-04 3.4021488689899970e-03 0.0000000000000000e+00  -7.2660938183706329e-04 6.3371699026392272e-04 0.0000000000000000e+00  2.9151748171533805e-03 1.0809274098384004e-03 0.0000000000000000e+00  3.0605807387561320e-04 1.4205014120763702e-03 0.0000000000000000e+00  -9.7098845090978422e-05 6.2279991187318331e-03 0.0000000000000000e+00  -1.0727296683951427e-03 2.1667389381974178e-03 0.0000000000000000e+00  5.9575419315598382e-04 2.1730355670998981e-04 0.0000000000000000e+00  -5.6580013730442151e-04 2.6184705206167289e-03 0.0000000000000000e+00  4.8568266746861974e-04 4.2374157798067569e-03 0.0000000000000000e+00  -2.5799267970207031e-04 5.9040759294227670e-03 0.0000000000000000e+00  8.4087816036850990e-05 5.3788241848262740e-04 0.0000000000000000e+00  3.9295798070726544e-04 -2.8315378785519131e-04 0.0000000000000000e+00  8.3900439547190887e-04 -2.2432432268948307e-04 0.0000000000000000e+00  -7.1619043532739415e-04 2.8539895436011913e-03 0.0000000000000000e+00  6.4531708209351456e-05 2.2627012433540459e-03 0.0000000000000000e+00  -1.1701623291190044e-04 1.5980521054364599e-03 0.0000000000000000e+00  -3.0477463254411294e-03 4.6453932011107403e-03 0.0000000000000000e+00  1.1880309041582984e-03 -3.8544404161839339e-04 0.0000000000000000e+00  3.5123543184094883e-04 1.6328311689201005e-03 0.0000000000000000e+00  5.0895143296942084e-04 -1.4161356574506944e-03 0.0000000000000000e+00  -9.4638200682146500e-04 3.3902097738354579e-03 0.0000000000000000e+00  1.1713116914571965e-04 2.3478021949766815e-03 0.0000000000000000e+00  1.6690031169297858e-03 -1.0854505383043785e-03 0.0000000000000000e+00  1.5149124238476012e-04 -2.8153530820007578e-03 0.0000000000000000e+00  -1.9744529643546688e-03 1.4124802870351580e-03 0.0000000000000000e+00  -1.4413185741160785e-03 1.8275284101484468e-03 0.0000000000000000e+00  -9.0117944113900922e-04 2.2757161649695698e-03 0.0000000000000000e+00  -1.7341602738118393e-04 -1.8999434222192958e-03 0.0000000000000000e+00  3.6501531536187090e-04 -1.0333179616304798e-03 0.0000000000000000e+00  -6.0875691335777007e-04 -8.0718517539275763e-03 0.0000000000000000e+00  -1.7001035451062272e-03 4.2759220368527428e-03 0.0000000000000000e+00  -1.1709272631136707e-04 1.0112725136967769e-03 0.0000000000000000e+00  -6.0957941634433126e-05 3.0484654538252315e-03 0.0000000000000000e+00  -1.0422392814434911e-04 1.3167388148240733e-03 0.0000000000000000e+00  7.6279483819125622e-04 -2.5516018462410292e-03 0.0000000000000000e+00  -1.0298165490493368e-03 8.3784124802625641e-04 0.0000000000000000e+00  8.5026070577215527e-04 -1.3199787187421251e-03 0.0000000000000000e+00  -2.4479552621546933e-04 2.5206656490752242e-03 0.0000000000000000e+00  4.7710549574024537e-04 1.7899494128920587e-03 0.0000000000000000e+00  -6.9119094051582142e-05 1.2903044330048975e-03 0.0000000000000000e+00  -1.3444208289855246e-03 1.1069225856039579e-03 0.0000000000000000e+00  1.1047180149722094e-03 -9.7379281618215064e-04 0.0000000000000000e+00  -2.7297526526111771e-04 2.0372292656214816e-03 0.0000000000000000e+00  1.1520295670972203e-03 -8.4872174204961629e-04 0.0000000000000000e+00  -1.4533010752815899e-03 8.7926660735909116e-04 0.0000000000000000e+00  9.8118869713871289e-04 -1.3857113538084825e-03 0.0000000000000000e+00  1.3994448672916158e-03 1.3825961772465879e-03 0.0000000000000000e+00  1.2664756021673880e-06 1.5863132230673196e-03 0.0000000000000000e+00  -4.6679676136347206e-04 1.2575735122289141e-03 0.0000000000000000e+00  -4.9328073836176205e-04 1.7019286098751889e-03 0.0000000000000000e+00  3.2064078653211729e-04 -7.6081126611109010e-04 0.0000000000000000e+00  -8.6957541940463779e-06 -4.2499750564229570e-03 0.0000000000000000e+00  -4.0399790783133345e-04 1.2540833798321679e-03 0.0000000000000000e+00  -6.9531922284014349e-04 1.2218214040518290e-03 0.0000000000000000e+00  -2.9048034730875562e-04 1.1341709130015226e-03 0.0000000000000000e+00  1.0809000902058959e-04 2.2795589912504221e-03 0.0000000000000000e+00  -1.4632456896707894e-04 2.5723998313148847e-04 0.0000000000000000e+00  -4.2144342446924976e-04 2.4353882793557483e-03 0.0000000000000000e+00  -4.6465916889990532e-04 2.7610203957253651e-03 0.0000000000000000e+00  1.3033983917370127e-03 6.7922003803851734e-04 0.0000000000000000e+00  4.2767183765763295e-04 2.9130405235348817e-03 0.0000000000000000e+00  -1.2559003028684908e-03 2.4530835062960745e-03 0.0000000000000000e+00  -1.2443191877581010e-03 3.9123326013683806e-03 0.0000000000000000e+00  -2.0374439500502674e-04 1.9397813789065557e-03 0.0000000000000000e+00  -2.2190718800415502e-04 2.2065120678709292e-03 0.0000000000000000e+00  1.1004456184369126e-03 4.4601119260466926e-04 0.0000000000000000e+00  3.5594293780397525e-03 -3.3796190636417388e-04 0.0000000000000000e+00  -2.0486468458371385e-03 4.6625873158461350e-03 0.0000000000000000e+00  -5.2071646841528947e-04 -3.6107659883310907e-03 0.0000000000000000e+00  -1.9260113305336597e-03 -3.9600351723584250e-04 0.0000000000000000e+00  -5.8172790808868236e-04 -3.7297009061763387e-04 0.0000000000000000e+00  7.5829519976133516e-04 5.7974086077332712e-03 0.0000000000000000e+00  -2.0601651106481677e-04 -3.2876102690627225e-04 0.0000000000000000e+00  -2.0696527556149434e-05 1.7595469240044752e-03 0.0000000000000000e+00  -8.9612812875767699e-04 2.4580261788070277e-03 0.0000000000000000e+00  -1.9103342478031672e-03 6.9241400896822799e-04 0.0000000000000000e+00  3.4778362203126932e-04 5.4753879892131146e-04 0.0000000000000000e+00  -3.3845859885730357e-04 3.8960249133926411e-03 0.0000000000000000e+00  -3.7328431622090876e-04 4.4941939393627526e-04 0.0000000000000000e+00  2.4051541436017872e-03 -2.3225442806682232e-03 0.0000000000000000e+00  5.3028489295696998e-05 3.3264069806269482e-03 0.0000000000000000e+00  -1.1353356411059996e-03 8.0662252002252494e-04 0.0000000000000000e+00  2.5322991156215237e-05 1.8197354497729557e-03 0.0000000000000000e+00  1.7509417639742069e-06 1.7707007165705130e-03 0.0000000000000000e+00  -1.4834122187346547e-03 1.8403464588533742e-03 0.0000000000000000e+00  1.7151581822103328e-03 -1.3009437041912471e-03 0.0000000000000000e+00  -3.4645440135231895e-05 7.3356989384672645e-04 0.0000000000000000e+00  4.8057852824710313e-04 -7.4895425264914729e-04 0.0000000000000000e+00  -5.9919213039681869e-04 4.1329067791798426e-03 0.0000000000000000e+00  -4.3032581070036914e-03 2.3115930272431897e-03 0.0000000000000000e+00  -6.9804050646243561e-04 2.6912560435034321e-03 0.0000000000000000e+00  -1.4566187042726791e-04 4.4203091159679105e-03 0.0000000000000000e+00  -6.1253077022901253e-04 3.8607469720016337e-03 0.0000000000000000e+00  -3.4619117195744154e-04 4.1161350502033275e-05 0.0000000000000000e+00  -1.4461820777949045e-04 3.2737610910315430e-03 0.0000000000000000e+00  3.2192851503053781e-03 6.7159006191710665e-04 0.0000000000000000e+00  -7.7614550595752317e-04 -5.8505504806538578e-04 0.0000000000000000e+00  -1.7088398221156414e-03 6.0409575537118104e-03 0.0000000000000000e+00  5.8167904886054743e-03 -3.0696729611467970e-03 0.0000000000000000e+00  -7.1425297970832458e-06 1.8700455559409505e-03 0.0000000000000000e+00  9.3118902429827045e-07 1.5067721664081186e-03 0.0000000000000000e+00  -4.2239887891695705e-04 4.8591894638295814e-03 0.0000000000000000e+00  4.0467958451825912e-05 1.6127803564196827e-03 0.0000000000000000e+00  2.5121147156713752e-03 -2.2026061979900403e-03 0.0000000000000000e+00  2.2904683354244490e-03 -2.5192046193741827e-03 0.0000000000000000e+00  -9.1575124992183585e-05 4.1530168972443247e-03 0.0000000000000000e+00  -2.1586709943938638e-03 4.9945314716188577e-03 0.0000000000000000e+00  -1.3019818099686171e-03 6.7955240621188429e-03 0.0000000000000000e+00  2.5236198045933426e-04 2.5760768930388643e-03 0.0000000000000000e+00  -5.4823625687374245e-03 8.6857713875895521e-04 0.0000000000000000e+00  -3.9152946193385830e-04 1.3124504161402795e-03 0.0000000000000000e+00  -2.3385265257798386e-05 2.2007935634273997e-03 0.0000000000000000e+00  -9.4660827786880223e-04 1.6353640394948694e-03 0.0000000000000000e+00  9.9951716854785634e-04 5.6940093307382908e-03 0.0000000000000000e+00  -3.8078084912028710e-04 4.7942417354067358e-05 0.0000000000000000e+00  3.5921017642831466e-04 1.2452943676380577e-03 0.0000000000000000e+00  1.9670664982386865e-04 1.1020023185296162e-03 0.0000000000000000e+00  5.5356216615749375e-04 -2.0409356842598529e-04 0.0000000000000000e+00  -8.9015243237875765e-04 2.1881824471744215e-03 0.0000000000000000e+00  1.0955096109251299e-03 -1.4283637801731260e-03 0.0000000000000000e+00  1.0815711378003414e-03 -1.0485307011883936e-04 0.0000000000000000e+00  1.2982719765271141e-03 5.8138233389315398e-04 0.0000000000000000e+00  7.2077193884105212e-03 2.2703492791822932e-03 0.0000000000000000e+00  4.4688927826480084e-03 -3.3295051974254275e-03 0.0000000000000000e+00  2.1125303756109053e-03 -4.7598496220698158e-03 0.0000000000000000e+00  -1.7030196774183565e-03 3.3415094302327096e-03 0.0000000000000000e+00  -1.1970298153658721e-04 5.8977690522995108e-03 0.0000000000000000e+00  3.0272414308798535e-04 2.2623436229753948e-03 0.0000000000000000e+00  -1.6266451869806444e-03 4.3568935178382763e-03 0.0000000000000000e+00  2.5319128952601497e-03 -8.1152476641098989e-04 0.0000000000000000e+00  -8.0616551200266787e-05 1.7416179879952689e-03 0.0000000000000000e+00  1.1136746657494992e-03 -5.4158515206791818e-04 0.0000000000000000e+00  7.1120366743522220e-04 2.0906833246128959e-03 0.0000000000000000e+00  2.4185880681856595e-03 -1.7957620497858623e-03 0.0000000000000000e+00  1.3416651428141252e-03 -2.3021244405319686e-03 0.0000000000000000e+00  8.2494256110110314e-04 1.6802650007430018e-03 0.0000000000000000e+00  -6.6880779882332129e-04 7.2286322383544347e-04 0.0000000000000000e+00  6.2579432066300119e-04 1.3105799341227345e-03 0.0000000000000000e+00  -1.0298869644779555e-04 1.7598343798267075e-03 0.0000000000000000e+00  8.5020439942997295e-04 5.2052490559412017e-04 0.0000000000000000e+00  3.8728092291299748e-04 2.5441699980498569e-04 0.0000000000000000e+00  -2.3461688661459860e-05 1.3444574393285250e-03 0.0000000000000000e+00  1.3378904289749628e-04 5.7002959830359384e-04 0.0000000000000000e+00  4.5025421971397507e-04 2.2420141033245263e-04 0.0000000000000000e+00  5.8508963524577830e-04 5.1396246887558633e-04 0.0000000000000000e+00  -5.1719959798264342e-04 3.8870284227251035e-03 0.0000000000000000e+00  8.3343091410969508e-04 -5.0153050581937882e-04 0.0000000000000000e+00  -1.3219572955081409e-03 5.3822988480449457e-03 0.0000000000000000e+00  6.4618757857896956e-04 7.6213582525178607e-03 0.0000000000000000e+00  -3.3268338331717954e-03 2.1403205404657228e-03 0.0000000000000000e+00  -3.6971141936555823e-04 4.1494827315879191e-03 0.0000000000000000e+00  3.1472522630923575e-03 -6.1564924584032446e-04 0.0000000000000000e+00  -3.3610483151750633e-03 5.9710550191353975e-03 0.0000000000000000e+00  -1.8062603879163053e-04 1.8385584626505504e-03 0.0000000000000000e+00  1.3105494087244459e-04 2.6190098804456776e-03 0.0000000000000000e+00  -7.5707982862623416e-04 1.8551722818242948e-03 0.0000000000000000e+00  1.3986049129577113e-03 -4.9502138030772238e-03 0.0000000000000000e+00  -1.0293620592070505e-04 7.2300721663339125e-04 0.0000000000000000e+00  -5.7827788804317966e-05 2.8777282798196219e-03 0.0000000000000000e+00  -1.3006990854510145e-03 1.8605578644075892e-03 0.0000000000000000e+00  1.8344973499155733e-03 -1.3541421772793921e-03 0.0000000000000000e+00  4.5721692283425658e-04 1.0713334454993642e-03 0.0000000000000000e+00  -9.4618887228056173e-04 1.4775596035644400e-03 0.0000000000000000e+00  -1.2423419277692400e-03 4.1373177010723570e-03 0.0000000000000000e+00  2.8163270795402880e-03 -4.4349935181445623e-04 0.0000000000000000e+00  -2.4755948146926415e-04 1.6262363437121723e-03 0.0000000000000000e+00  -4.8107842936685383e-04 1.1839450909558662e-03 0.0000000000000000e+00  -5.7638434366343960e-04 4.4515899177995644e-03 0.0000000000000000e+00  2.8219878604388525e-04 2.5426964694401527e-03 0.0000000000000000e+00  3.3804011756956992e-04 1.7775393203947286e-03 0.0000000000000000e+00  -1.6242135895509079e-03 3.1513480796722358e-03 0.0000000000000000e+00  -1.1203379998324175e-03 -9.9099352555323192e-04 0.0000000000000000e+00  -1.2421432278118198e-03 1.2872913964630704e-03 0.0000000000000000e+00  -2.8850740201836469e-04 4.5012280485388946e-03 0.0000000000000000e+00  -2.2860626807990172e-04 1.6005178810711749e-03 0.0000000000000000e+00  6.0342286097845200e-04 4.4838341404315656e-03 0.0000000000000000e+00  -6.8355463306913277e-04 1.7127690208662300e-03 0.0000000000000000e+00  -6.5710589215962965e-04 4.0941299392186050e-03 0.0000000000000000e+00  -1.0769314903528006e-03 1.8179897028556488e-03 0.0000000000000000e+00  5.0107743156607547e-04 -4.0476402345649646e-05 0.0000000000000000e+00  -2.5728189227268656e-05 1.6681807480245243e-03 0.0000000000000000e+00  2.0715427030615222e-04 1.5416478482736728e-03 0.0000000000000000e+00  2.3093938877947134e-04 1.2538503053746302e-03 0.0000000000000000e+00  -1.2038222367684785e-03 2.7613668256351574e-03 0.0000000000000000e+00  5.1047167637129564e-04 -1.9685140046383307e-03 0.0000000000000000e+00  -6.8722950820096149e-04 2.3592400685576507e-03 0.0000000000000000e+00  -6.6839495564949064e-06 2.0203971551933930e-03 0.0000000000000000e+00  -1.2937272119587068e-03 3.5597557466622437e-03 0.0000000000000000e+00  1.4811027266285797e-04 1.3423551889311101e-04 0.0000000000000000e+00  2.1253605985686408e-04 1.6844509310067989e-03 0.0000000000000000e+00  3.3148270348973318e-04 2.0410012417737939e-03 0.0000000000000000e+00  2.8223079356720963e-03 7.0320061653592007e-03 0.0000000000000000e+00  -8.6276475450476153e-04 2.8830921101795060e-03 0.0000000000000000e+00  -8.1711094161005025e-04 -1.5220526564858777e-03 0.0000000000000000e+00  -4.9062561609980958e-05 1.6295240136546135e-03 0.0000000000000000e+00  -5.4823060706049413e-05 2.9706532948168642e-03 0.0000000000000000e+00  -5.2070793332554795e-05 5.8458037171116501e-04 0.0000000000000000e+00  -7.5467023828627725e-04 9.0506211604796767e-04 0.0000000000000000e+00  -1.1755815539077957e-03 1.9262001948505032e-03 0.0000000000000000e+00  6.4173761350013673e-04 -1.4888394326581255e-03 0.0000000000000000e+00  2.7892099663576206e-03 -1.8111012959321107e-03 0.0000000000000000e+00  3.2204817351631911e-04 7.2466305090173135e-04 0.0000000000000000e+00  -3.1463590054069639e-04 8.4218829030917178e-04 0.0000000000000000e+00  -4.4804821206384017e-04 1.6578677229557742e-03 0.0000000000000000e+00  -1.0992025087210055e-04 1.8751691463451863e-03 0.0000000000000000e+00  -1.2283469305046402e-04 2.0015848567571525e-03 0.0000000000000000e+00  -3.1026963213690072e-03 3.8888496392767524e-03 0.0000000000000000e+00  -1.8051333334855183e-03 6.5563331366108053e-03 0.0000000000000000e+00  -1.8086032422016301e-04 -2.5618201433700409e-03 0.0000000000000000e+00  -1.7825221325878176e-03 3.9927309522369853e-03 0.0000000000000000e+00  -1.0141147856748759e-05 -5.0375761324660383e-03 0.0000000000000000e+00  4.4926053409146622e-03 -4.1487123839196883e-03 0.0000000000000000e+00  6.5653908060402360e-04 2.1976520035752517e-03 0.0000000000000000e+00  -1.0508855606275168e-04 1.2410602538872745e-03 0.0000000000000000e+00  1.0407547902746002e-03 2.2194269507673221e-04 0.0000000000000000e+00  2.5481285850460338e-04 -1.2129742591781404e-03 0.0000000000000000e+00  -1.8235122211718250e-03 2.1042062171824304e-03 0.0000000000000000e+00  -8.2785737230818427e-05 1.8479912073798188e-03 0.0000000000000000e+00  -5.6420528290224365e-04 -4.3544640359432620e-03 0.0000000000000000e+00  3.5211859268842655e-03 6.4755893704375084e-05 0.0000000000000000e+00  -6.1836146890669342e-05 -1.7640702577209635e-03 0.0000000000000000e+00  1.5486848805135777e-03 -6.3774391769632907e-03 0.0000000000000000e+00  7.4395998764570880e-04 1.6940077504613235e-03 0.0000000000000000e+00  -3.6688669839648260e-04 3.8504471791166650e-03 0.0000000000000000e+00  5.2889636097507681e-04 1.9669012021457708e-04 0.0000000000000000e+00  1.9118337549074607e-03 8.9043082336615759e-04 0.0000000000000000e+00  -4.2807179331605079e-05 5.6856313864399322e-04 0.0000000000000000e+00  -3.3270500673949436e-03 6.8590715017417432e-03 0.0000000000000000e+00  1.1965972116542562e-04 3.4874251361118828e-03 0.0000000000000000e+00  1.3012434043619071e-03 7.6394191555136286e-03 0.0000000000000000e+00  1.2105979384052975e-04 5.3928104944729062e-04 0.0000000000000000e+00  8.3859698252847182e-05 1.6353020292138711e-03 0.0000000000000000e+00  1.5864414385757166e-03 -6.0303572882386327e-05 0.0000000000000000e+00  3.8525174891150256e-07 1.7261330997251603e-04 0.0000000000000000e+00  -1.9251103443328741e-04 1.5199155084794364e-03 0.0000000000000000e+00  -8.7911991305364054e-04 2.2618631620749544e-03 0.00000000000000