<?xml version="1.0"?>
<VTKFile type="UnstructuredGrid"  version="0.1"  >
<UnstructuredGrid>
<Piece  NumberOfPoints="1385" NumberOfCells="2640">
<Points>
<DataArray  type="Float64"  NumberOfComponents="3"  format="ascii">0 0 0  1 0 0  1 1 0  0 1 0  0.5 0 0  1 0.5 0  0.5 1 0  0 0.5 0  0.5 0.5 0  0 0.25 0  0.25 0 0  0.25 1 0  0 0.75 0  1 0.25 0  0.75 0 0  1 0.75 0  0.75 1 0  0.7083333333333333 0.2916666666666667 0  0.2916666666666666 0.7083333333333334 0  0.375 0.25 0  0.75 0.625 0  0.2569444444444444 0.4652777777777778 0  0.5366379310344828 0.7535919540229885 0  0.1875 0.1875 0  0.8125 0.8125 0  0.869047619047619 0.375 0  0.1450441919191919 0.6052714646464646 0  0.375 0.8690476190476191 0  0.5526960784313725 0.1825980392156862 0  0.8385416666666666 0.1614583333333334 0  0.1614583333333333 0.8385416666666667 0  0.6736111111111112 0.4652777777777778 0  0.1367521367521368 0.3477564102564102 0  0.6570970491253563 0.8648656830417855 0  0.5102479397556124 0.3386260301221938 0  0.3654513888888889 0.5737847222222222 0  0.6929750044954185 0.1362784921584263 0  0.388576102743835 0.411911725237599 0  0.6091269841269842 0.5942460317460317 0  0.875 0.6875 0  0.427278890279516 0.119889445139758 0  0.8544456845238095 0.5213913690476191 0  0.125 0 0  0 0.125 0  1 0.875 0  0.875 1 0  0.1280008648150532 0.4769292340226777 0  0.2695382451711197 0.3321750950221553 0  0.7031567235715964 0.7447810921428012 0  0.625 0 0  0.375 0 0  0.125 1 0  0.875 0 0  0 0.375 0  0 0.625 0  1 0.375 0  0.375 1 0  1 0.125 0  0 0.875 0  0.625 1 0  1 0.625 0  0.2979288363930608 0.1201429454643536 0  0.410919540229885 0.7484605911330049 0  0.5325041980395562 0.878905151526474 0  0.4831670727569156 0.6331060043826487 0  0.1735997378973042 0.7204747378973043 0  0.2534919507575758 0.5772372159090909 0  0.2633928571428572 0.8876488095238095 0  0.8199404761904761 0.2730654761904762 0  0.75830270586982 0.3919383189517417 0  0.5750282248382511 0.4237522353023667 0  0.6008360210023379 0.2794828358598495 0  0.08163442644334186 0.6821295860397322 0  0.08333333333333333 0.1875 0  0.2028380815996574 0.08844602719988583 0  0.2766521142611967 0.2325436572164097 0  0.90625 0.78125 0  0.890625 0.890625 0  0.7545696325008384 0.8973565441669461 0  0.5625 0.08086590340834317 0  0.09077380952380953 0.09077380952380952 0  0.4610923478694773 0.209034015149656 0  0.7542527598351648 0.5248380520595106 0  0.6459235536037465 0.3619913988405765 0  0.7560381768882634 0.20506142233852 0  0.07073252688172042 0.8125 0  0.0924753097241701 0.9078102849914793 0  0.9292674731182795 0.1875 0  0.9075246902758297 0.09218971500852073 0  0.8125 0.07073252688172045 0  0.2400955776842301 0.7869705776842302 0  0.9121050213379069 0.2781978201831695 0  0.7916878157143976 0.7239689078571988 0  0.9345238095238094 0.4375 0  0.4375 0.9345238095238095 0  0.3725616989755203 0.6651895248862173 0  0.06536271996350887 0.5625 0  0.9348362560379583 0.5625 0  0.456646798987055 0.8277247094351965 0  0.1875 0.9355758238725954 0  0.6169761231634859 0.6939779188977889 0  0.6226854751147515 0.7827911461419014 0  0.3305695598137626 0.7901697871282585 0  0.5865305325818898 0.5101085479043448 0  0.6622701297028378 0.2177663989757395 0  0.1354166666666667 0.2591702279202279 0  0 0.3125 0  0.2094429575680048 0.3936361846162499 0  0.836666296419157 0.607917407161686 0  0.6875 1 0  0.214261555450504 0.6492551722020035 0  0 0.4375 0  0.07731537126068377 0.40625 0  0.3427725432967068 0.4879566233699599 0  0.3550792513951871 0.3331953632609953 0  0.4462473953896857 0.2887834789342508 0  0.4747801464819794 0.417386052030127 0  0.8229836475148948 0.4443292349237342 0  0.7322605135514757 0.8199240278289671 0  0.6756431877205955 0.5468989748126787 0  0.1968419507215863 0.5194573482612496 0  0.3285590277777778 0.9345238095238095 0  0.8125 1 0  0.4198917601920009 0.5134893045331258 0  0.5232405503206691 0.2595791787880157 0  1 0.9375 0  0.1987510870015086 0.3025185951894431 0  0.5625 1 0  0.6005390654136388 0.9228110509230952 0  0.6411254848194414 0.07704872765442942 0  0.3357233162523242 0.1855113224530532 0  0.6730653396610877 0.6393887462324165 0  0.310966987234063 0.6240019765311626 0  0.7368737836204349 0.07457755202327881 0  0.6192316414418171 0.1485238406378594 0  0.5432429670607106 0.678552703844006 0  0.4754371679695679 0.7103946803120881 0  0.07501324890749672 0.3043839897335739 0  0.5358146975860403 0.5688321463205916 0  0.3115271739500156 0.3982137365971444 0  0.3625191397122174 0.0767854603650549 0  0.5024029442563831 0.1264128223758444 0  0.4375 0 0  0.4699946908887376 0.06379961173775725 0  0.9375 0.71875 0  0.9272105898044465 0.635671179608893 0  0.9375 1 0  0.6690971819568612 0.9331530898202766 0  0.1073454944778885 0.7499206387638554 0  0.8699082999280406 0.2232403652524313 0  0.5773118091863964 0.3548027349159383 0  0.1354166666666667 0.1428571428571428 0  0.3125 0 0  0.8241684193077341 0.9257452995055244 0  0.4352314948354036 0.3586940847489378 0  0.4351301473778832 0.5819726043539077 0  0.8073232928518163 0.3419398170341962 0  0.7775949246947366 0.1298519409204575 0  0.6875 0 0  0.7413513991851041 0.457933324954483 0  0.939453125 0.841796875 0  0.5630355154606987 0.8171875156478349 0  0.9345238095238095 0.3461466592368577 0  0.9375 0 0  1 0.0625 0  0.0625 1 0  0 0.9375 0  0.06552178593177167 0.4969053669623468 0  0.1424866619031703 0.4130277709291224 0  0.1275287182444726 0.5422946908002588 0  0.2637686595586339 0.06413888464529549 0  0.2524263535491086 0.1697437503243817 0  0.7367218397988525 0.6888573970660841 0  0.0625 0 0  0 0.0625 0  0.8463594539285995 0.7578283617857982 0  0.3128751192101563 0.2851997374369947 0  0.4015281788351144 0.1806421385113692 0  0.1910251795116588 0.4553332197174453 0  0.287797471442006 0.5222621440543902 0  0.3962628745986055 0.8097380085535307 0  0.3505895299554843 0.7304878890838692 0  0.5019151500495276 0.9356042615328103 0  0.9374389419410134 0.4999931039076005 0  0.3125 1 0  0.1875 1 0  1 0.5625 0  0.4375 1 0  1 0.3125 0  1 0.4375 0  0.8125 0 0  1 0.1875 0  0.5625 0 0  0.1875 0 0  0 0.1875 0  0 0.5625 0  0 0.6875 0  0 0.8125 0  1 0.6875 0  1 0.8125 0  0.8021696218581627 0.6612893947866073 0  0.06154922295426143 0.6239401126946708 0  0.9359375 0.9359375 0  0.4666158024849896 0.7691515918155014 0  0.2318201265217025 0.7064974250277525 0  0.1565954253579966 0.6635489312486841 0  0.1598132503680848 0.7787147500325552 0  0.3146529991605639 0.8510876378205265 0  0.1461873209418733 0.05982804528877814 0  0.06109554988524315 0.2446551776247686 0  0.8054950308560754 0.5564226538848541 0  0.470541749491976 0.8853316336952531 0  0.6948472567465137 0.4042308563372457 0  0.8802828472348889 0.4658893256343853 0  0.6788075634946739 0.7974194205806069 0  0.2155048659603867 0.2428201584940968 0  0.8131223143423806 0.2132171049028394 0  0.4330798005432235 0.6671274900735726 0  0.6015279126162613 0.2187368078743274 0  0.8061636571464289 0.8703766630361714 0  0.7008230445061776 0.3478568388444072 0  0.8638466246958771 0.3147095987735538 0  0.204801534004265 0.8789209409594009 0  0.2449006736431132 0.9424182882803838 0  0.7611268409371427 0.2643056884799992 0  0.7552800864046191 0.7678006649959446 0  0.5983639638906616 0.864113435029236 0  0.1956559506814437 0.577281203577426 0  0.3527670268164207 0.1320469097565204 0  0.7530364577483248 0.3262386077083089 0  0.4535919187979363 0.4690107087451527 0  0.8824869791666666 0.8336588541666666 0  0.8814453125 0.9451171875 0  0.5582987942628019 0.622421666543858 0  0.6817532446064828 0.6939001801354731 0  0.3830295138888889 0.9450968952922078 0  0.4140603937012541 0.05211333372716105 0  0.5535864501303013 0.3060591985391672 0  0.6560130086346878 0.2729726562211558 0  0.890203140221684 0.5948314305427268 0  0.7043857725999024 0.593980890020804 0  0.5105843922695152 0.8016828014338627 0  0.05365910753708378 0.7315110031682004 0  0.616904573672261 0.4621186633436136 0  0.5338511646455415 0.387875898899613 0  0.5231769258947843 0.4477682463140762 0  0.650302973237622 0.7370722302085519 0  0.3927483139621257 0.4662414504529014 0  0.8034595960585199 0.4972538342758211 0  0.7738337841682438 0.9496376207663251 0  0.7193737507158268 0.954685447650112 0  0.482525916480686 0.5528257169991676 0  0.2533501157346781 0.2809495420003238 0  0.3118487924482243 0.5702930126570319 0  0.6257598847669529 0.4104163315430518 0  0.1354166666666667 0.1955605158730158 0  0.04166666666666666 0.15625 0  0.3956448985530264 0.6174149462065157 0  0.8102897701818546 0.3938784238208349 0  0.2641154190013625 0.8344469561943118 0  0.642852220770013 0.5068794586563659 0  0.05271458179508221 0.355846947336007 0  0.7021551360070266 0.8921457280225779 0  0.5692125776683765 0.1328512638850284 0  0.5206162811937602 0.04865158770992991 0  0.6001838442201555 0.04540556991297563 0  0.2597716608242787 0.4118346398477178 0  0.4040584599473195 0.3179589136784675 0  0.1480337679295207 0.8941560631483065 0  0.1344356707112281 0.9466251177415842 0  0.7114696411829317 0.4983917389078826 0  0.7585704698442475 0.5751926345944629 0  0.2189131956390871 0.04022068508159698 0  0.2476935455192043 0.1123642267635843 0  0.185995005654517 0.1365524537205238 0  0.6223414373308711 0.643380839165121 0  0.5732602596637543 0.7190051747306219 0  0.268358222364537 0.6586246524467934 0  0.3265879848129173 0.2369791782191225 0  0.1267095595787346 0.7034787238999181 0  0.1115202922226038 0.6421997933884982 0  0.3128688392940203 0.07260997451790079 0  0.550724900485678 0.9253360991633187 0  0.7142608810459105 0.2384904702214873 0  0.7045869185243887 0.1871826897887429 0  0.890625 0.734375 0  0.953125 0.765625 0  0.2111812642821677 0.8286209446459138 0  0.9590293078204457 0.09375 0  0.953431269039847 0.1435719386408004 0  0.04097069217955424 0.90625 0  0.04656873096015299 0.8564280613591996 0  0.1078743037981226 0.8541621766048062 0  0.8921256962018773 0.1458378233951939 0  0.8521576979194619 0.1084496634207678 0  0.8655663982740958 0.05464346096571447 0  0.04005659640905543 0.09375 0  0.1001448316533417 0.04246776244228261 
[...]
<PointData  Vectors="f_9174-0"> 
<DataArray  type="Float64"  Name="f_9174-0"  NumberOfComponents="3" format="ascii">7.0309357167397321e-03 3.1643713597340525e-03 0.0000000000000000e+00  7.1178945968815017e-04 -3.1116465759130720e-04 0.0000000000000000e+00  2.8989363156329347e-03 2.1465244610267614e-04 0.0000000000000000e+00  4.2719233792461245e-03 3.1998665890877126e-04 0.0000000000000000e+00  2.2778105006205445e-03 -5.0010712488829275e-03 0.0000000000000000e+00  2.4191009182733092e-04 1.6185157890004519e-04 0.0000000000000000e+00  7.4274770930048140e-04 -2.1848202260356321e-04 0.0000000000000000e+00  3.0868209656609892e-03 -1.2886879111437661e-03 0.0000000000000000e+00  -5.2689112570907513e-04 -5.1856355434615371e-04 0.0000000000000000e+00  7.1943342044148411e-03 3.5119794421725097e-04 0.0000000000000000e+00  2.6905564144350039e-03 -2.7715313621495567e-03 0.0000000000000000e+00  -4.8208520375460769e-04 1.6431528845368890e-03 0.0000000000000000e+00  6.5874849456918332e-03 -1.1775240517780477e-03 0.0000000000000000e+00  -8.5716959689636813e-04 4.8770871151671371e-04 0.0000000000000000e+00  7.4781182998000326e-05 1.5539480648128056e-03 0.0000000000000000e+00  1.8590422297673126e-03 -1.6377138896558113e-04 0.0000000000000000e+00  1.5248487602464919e-03 -3.9792211970625271e-04 0.0000000000000000e+00  8.5338425934020957e-04 -1.0405105681116911e-03 0.0000000000000000e+00  1.1893912588217211e-03 -4.8475914297594301e-04 0.0000000000000000e+00  -1.4574665233914037e-03 1.8497739162029198e-03 0.0000000000000000e+00  1.3051081250906721e-03 5.2366643320178618e-04 0.0000000000000000e+00  2.0372007533838686e-03 -2.0798634374801892e-03 0.0000000000000000e+00  1.1148000892475282e-03 6.2235765864027842e-04 0.0000000000000000e+00  -1.6853708336835669e-03 -3.1186195661444920e-03 0.0000000000000000e+00  8.0738506890515186e-04 -1.6780751874377950e-04 0.0000000000000000e+00  1.9674838166916521e-03 1.0430884146956501e-04 0.0000000000000000e+00  -1.3851258810552965e-03 1.1497955922809889e-03 0.0000000000000000e+00  2.7006344108327415e-03 8.4593796577445073e-05 0.0000000000000000e+00  3.2187850156328228e-03 7.5349488510901923e-04 0.0000000000000000e+00  -6.6334192698815542e-04 2.8104007603275033e-04 0.0000000000000000e+00  -1.0543618367884723e-03 -2.4309861506809264e-04 0.0000000000000000e+00  -1.9202036228363624e-04 -1.6673549315015291e-03 0.0000000000000000e+00  -1.5401394929085617e-03 5.5321134633272743e-04 0.0000000000000000e+00  8.2154959930615503e-04 -1.2737546491581515e-04 0.0000000000000000e+00  -1.3051889750500525e-03 -1.5699842267071753e-03 0.0000000000000000e+00  5.1230542039172157e-03 2.8898700741646749e-05 0.0000000000000000e+00  -4.7676239106238093e-03 -1.5515520371194491e-04 0.0000000000000000e+00  1.5446105876794577e-03 2.2656877708425904e-03 0.0000000000000000e+00  -7.4912180610085295e-05 1.2746927774783365e-03 0.0000000000000000e+00  7.7490761013113434e-04 1.7136981905955829e-05 0.0000000000000000e+00  1.3399465575819746e-03 -2.4654254610596655e-03 0.0000000000000000e+00  1.4118002021256129e-03 1.2990367346747079e-05 0.0000000000000000e+00  2.4014508418337059e-03 -1.7993030467443585e-03 0.0000000000000000e+00  5.4644364442734007e-03 -2.6682933409089686e-03 0.0000000000000000e+00  2.6423249010762255e-03 -2.9425324786091524e-04 0.0000000000000000e+00  1.1267615584634187e-03 -1.5255103865198590e-03 0.0000000000000000e+00  1.4803150801187121e-03 -6.6547202595124361e-04 0.0000000000000000e+00  6.0212844682029599e-03 3.0044253615652309e-04 0.0000000000000000e+00  4.9844305597908107e-04 2.1904573959291216e-04 0.0000000000000000e+00  4.3590912364938209e-03 -9.7156480346681159e-04 0.0000000000000000e+00  2.2437952985547146e-03 -2.0842234928793169e-04 0.0000000000000000e+00  -8.6299919711812167e-04 7.8294063594361502e-04 0.0000000000000000e+00  2.2741737796058330e-03 -5.9355492855689158e-04 0.0000000000000000e+00  7.0810861039342209e-03 -4.5627052097484762e-04 0.0000000000000000e+00  6.9445937435854733e-03 5.9030979107962522e-05 0.0000000000000000e+00  -6.2466237196322325e-04 2.5795458707638199e-04 0.0000000000000000e+00  -5.2926323852900763e-05 -1.1098875366151728e-04 0.0000000000000000e+00  -3.8130387405688150e-04 8.2705877409383036e-04 0.0000000000000000e+00  2.6436878147158005e-03 -1.0060031413638201e-03 0.0000000000000000e+00  9.7382715703179829e-04 -6.4716086195240759e-05 0.0000000000000000e+00  9.8433429100087521e-04 -8.7238071474392764e-05 0.0000000000000000e+00  -5.4587644450935493e-04 -1.0973983431384646e-03 0.0000000000000000e+00  -8.9867182369643352e-04 1.1311526194039683e-03 0.0000000000000000e+00  4.7403365214222543e-04 1.9674570761947898e-04 0.0000000000000000e+00  -3.0839688883896690e-04 8.6799047690030821e-04 0.0000000000000000e+00  8.3974667405652863e-04 -1.9559275193404549e-03 0.0000000000000000e+00  1.7662087866075478e-03 7.3209649493568879e-04 0.0000000000000000e+00  2.2143554697009004e-04 2.5262784991196817e-04 0.0000000000000000e+00  -2.5106718938985167e-03 1.2438882720929479e-04 0.0000000000000000e+00  -8.2915274593634773e-04 -1.0941676291330664e-03 0.0000000000000000e+00  1.7130045650439826e-04 -9.7881004813024164e-04 0.0000000000000000e+00  5.6039508478467840e-03 6.6120652276135689e-04 0.0000000000000000e+00  -8.2728413198520842e-04 7.8957976999284487e-04 0.0000000000000000e+00  -3.6547417088063964e-03 -1.4155732552643139e-03 0.0000000000000000e+00  -5.4933998454561898e-03 1.5234607481888077e-03 0.0000000000000000e+00  4.0001761260534058e-03 -1.4268114980861787e-03 0.0000000000000000e+00  1.1993283017425606e-03 -4.0268677595492816e-04 0.0000000000000000e+00  9.6488539705654017e-04 2.1062724069440531e-06 0.0000000000000000e+00  8.9294936953687905e-04 -4.5337192271858691e-04 0.0000000000000000e+00  -2.9431343445546513e-03 -1.2179941493419433e-04 0.0000000000000000e+00  3.8578871422682570e-03 -2.1622183162601709e-03 0.0000000000000000e+00  -3.8280527714448058e-03 7.2278424962467854e-04 0.0000000000000000e+00  1.1166107489158205e-03 -7.2795368006884796e-05 0.0000000000000000e+00  2.6937323469589120e-06 -3.1938114862848133e-05 0.0000000000000000e+00  1.7515565076155100e-03 1.0567957096969728e-03 0.0000000000000000e+00  2.7361124945977605e-03 5.9760762909115926e-04 0.0000000000000000e+00  1.8627172937607246e-03 3.4679236893562235e-04 0.0000000000000000e+00  3.0395041018451753e-03 -8.2837534487630764e-04 0.0000000000000000e+00  -1.4379049074296226e-03 6.4214596778483122e-04 0.0000000000000000e+00  1.8358647473151659e-03 -1.5432075070733744e-03 0.0000000000000000e+00  -6.9198281753038893e-04 8.0847678767412973e-04 0.0000000000000000e+00  1.6633482690864769e-03 6.1848037742182809e-04 0.0000000000000000e+00  9.8449471077599929e-04 -1.2004605741935238e-05 0.0000000000000000e+00  1.7175159312018866e-03 -2.7571509369881070e-04 0.0000000000000000e+00  1.5480937261390087e-03 8.8482477956468549e-05 0.0000000000000000e+00  -2.0484349042757433e-03 -9.1275034822453741e-05 0.0000000000000000e+00  -1.6387613547859589e-03 3.1661026617446023e-03 0.0000000000000000e+00  1.3044620778022483e-03 2.8372680088030547e-05 0.0000000000000000e+00  1.7214845641136513e-03 -1.2363749658445447e-03 0.0000000000000000e+00  -7.1592620133180309e-04 5.9549187801041792e-04 0.0000000000000000e+00  5.0561554247978402e-04 -6.2782788490262456e-04 0.0000000000000000e+00  8.4043014579805470e-04 2.7563365464979917e-04 0.0000000000000000e+00  5.1586941829814359e-04 -3.8048856752152718e-03 0.0000000000000000e+00  1.9818315192049107e-03 -7.8925562322116304e-04 0.0000000000000000e+00  -9.3702536886400138e-04 2.6248174717902568e-03 0.0000000000000000e+00  -1.7474114605267126e-03 -1.5207220474785909e-03 0.0000000000000000e+00  9.9874558957004978e-04 -1.6213730843592225e-03 0.0000000000000000e+00  8.7828744283636187e-05 -1.3229938621455522e-03 0.0000000000000000e+00  3.3736558089627705e-04 2.5497126255019024e-04 0.0000000000000000e+00  9.7551687253625901e-04 -2.7032934988757164e-04 0.0000000000000000e+00  3.1400944839507337e-05 1.2230280031183816e-03 0.0000000000000000e+00  4.3951464043940174e-03 -1.9519010140870941e-03 0.0000000000000000e+00  -1.2549440532012995e-03 2.2435476537303146e-04 0.0000000000000000e+00  -3.1357975669584872e-03 -1.0859853836128253e-03 0.0000000000000000e+00  -1.2341419606041117e-03 -1.7367251561322236e-03 0.0000000000000000e+00  2.3164042261130842e-03 1.4936545847306320e-03 0.0000000000000000e+00  4.7456466221165597e-04 -2.6099179990025740e-03 0.0000000000000000e+00  -4.2637361130275447e-04 6.1409697925580444e-04 0.0000000000000000e+00  8.2164602293144568e-04 1.8829288194385910e-05 0.0000000000000000e+00  3.5775519703777706e-04 -9.3616109244764852e-04 0.0000000000000000e+00  -3.8843875105308945e-03 -6.2537367970841914e-04 0.0000000000000000e+00  -2.8100968006046560e-04 5.8078753311799640e-05 0.0000000000000000e+00  2.3693853149076324e-03 -1.0042600515122267e-03 0.0000000000000000e+00  3.1151162897148478e-03 -7.3590613557395186e-03 0.0000000000000000e+00  -1.8277430726685630e-03 1.5014930748611850e-03 0.0000000000000000e+00  3.2809412761315398e-03 2.9393310552962152e-05 0.0000000000000000e+00  2.0358589085502387e-03 -9.3479363233909185e-04 0.0000000000000000e+00  6.4957451287413421e-04 3.7295966922423220e-05 0.0000000000000000e+00  9.7696941637236329e-04 -4.7532134900676111e-05 0.0000000000000000e+00  2.5505175750983006e-03 -2.1496761118509921e-03 0.0000000000000000e+00  4.8811972010014493e-03 7.3375468700903764e-04 0.0000000000000000e+00  1.6481987601575220e-03 -1.2708653361427784e-04 0.0000000000000000e+00  -2.7899518674507125e-03 4.7748574636305506e-04 0.0000000000000000e+00  4.3970506521389102e-03 -2.8099286734144393e-04 0.0000000000000000e+00  2.9567156839852781e-03 -1.9380708605968501e-03 0.0000000000000000e+00  1.8379137973705102e-03 -7.3087165795703642e-04 0.0000000000000000e+00  2.1463479275469037e-03 -8.2757757823289160e-04 0.0000000000000000e+00  -2.0073055466676912e-03 -1.5811029039205680e-04 0.0000000000000000e+00  1.9625153121296010e-03 -2.6239431008848548e-04 0.0000000000000000e+00  1.6600391556065900e-03 -2.0885379794634185e-03 0.0000000000000000e+00  4.4131260883879526e-04 3.1035980651804664e-03 0.0000000000000000e+00  -1.3795612558357502e-03 -1.0604257333890782e-03 0.0000000000000000e+00  2.1521840423600136e-03 -5.6523112769278389e-04 0.0000000000000000e+00  -1.8739946552968163e-04 3.4359121815386880e-04 0.0000000000000000e+00  1.2921830852468943e-03 -5.6977762967284017e-05 0.0000000000000000e+00  8.5786050439351546e-04 -1.1116374638734782e-05 0.0000000000000000e+00  2.0538109848751017e-03 2.8665224595242290e-04 0.0000000000000000e+00  6.4765454305452030e-04 8.3687228594940842e-05 0.0000000000000000e+00  -2.8580547090405108e-03 8.8481419378168562e-04 0.0000000000000000e+00  -1.1072236924771243e-04 3.6616754228619949e-04 0.0000000000000000e+00  4.9756881109514067e-03 -7.3643195106193131e-04 0.0000000000000000e+00  2.3897740653888494e-04 -1.8026016941479774e-04 0.0000000000000000e+00  3.6587787544697806e-03 -1.3543254226827865e-03 0.0000000000000000e+00  5.6621791395890220e-04 3.1590867669263850e-04 0.0000000000000000e+00  3.3890865049601019e-03 -1.2207798129545738e-03 0.0000000000000000e+00  1.8790377670777658e-04 -3.0987299492501216e-04 0.0000000000000000e+00  2.8688025933527191e-03 2.3430997065406026e-04 0.0000000000000000e+00  2.8099866643759336e-03 -3.8190611005795684e-03 0.0000000000000000e+00  2.6196277809684776e-03 -2.1723120383692045e-04 0.0000000000000000e+00  -9.9530486136547983e-04 4.0953298529991034e-04 0.0000000000000000e+00  -4.0180231125965492e-04 -9.2750110531876679e-04 0.0000000000000000e+00  1.9393580391267222e-04 3.6871879782650482e-04 0.0000000000000000e+00  -5.4310746224935612e-04 1.7392404114109140e-03 0.0000000000000000e+00  2.4140746250397209e-03 -1.0307999274633472e-03 0.0000000000000000e+00  -2.1523350045126299e-03 6.4415925000760603e-04 0.0000000000000000e+00  -8.8210531117903198e-04 1.0512569637157378e-03 0.0000000000000000e+00  4.3361855986551682e-03 -9.5985848077017634e-04 0.0000000000000000e+00  -3.9445407292332734e-03 9.0137848295949834e-04 0.0000000000000000e+00  6.2869016813897408e-03 -1.1015980936264730e-03 0.0000000000000000e+00  9.8015162610671407e-04 -7.9512494391265271e-04 0.0000000000000000e+00  -1.9145146813560816e-03 -7.1626039316450977e-04 0.0000000000000000e+00  5.6076272444461556e-03 -1.7234182381954026e-05 0.0000000000000000e+00  8.9879962893018596e-04 -4.9555752088228889e-05 0.0000000000000000e+00  2.4093932041470154e-03 -2.2070054025254467e-03 0.0000000000000000e+00  4.0023023411275508e-03 -1.5700167241094452e-03 0.0000000000000000e+00  8.8107278169548460e-04 -3.8830488143629907e-05 0.0000000000000000e+00  -1.2424760110401412e-03 -2.5517290164465880e-04 0.0000000000000000e+00  2.9459680291596181e-03 7.6775193384768397e-04 0.0000000000000000e+00  -2.5500475872354753e-03 2.5651093318889949e-03 0.0000000000000000e+00  1.6023440667585181e-03 1.1951541119064810e-03 0.0000000000000000e+00  -2.3492562434399770e-04 1.3201812573779542e-04 0.0000000000000000e+00  2.4646565043973776e-03 7.9236971447309886e-04 0.0000000000000000e+00  1.0148878040136782e-04 4.9945966795072246e-04 0.0000000000000000e+00  9.7414973118345959e-04 -5.3398879248875886e-04 0.0000000000000000e+00  4.1158922563600876e-04 1.7753041668432373e-03 0.0000000000000000e+00  -1.1892415119783952e-03 4.6692106993105110e-04 0.0000000000000000e+00  8.0917280855927383e-04 8.3023678093122988e-05 0.0000000000000000e+00  1.4851645850647182e-04 -2.6377108837243680e-05 0.0000000000000000e+00  -6.6036975968983194e-04 4.6620222001457257e-04 0.0000000000000000e+00  -1.2479341267006446e-04 4.0572132777130847e-04 0.0000000000000000e+00  2.3629484818005102e-03 -7.7836099168867895e-04 0.0000000000000000e+00  -1.7351442747376962e-03 5.6726297426803920e-04 0.0000000000000000e+00  2.4687244370275255e-03 1.5952934272437736e-04 0.0000000000000000e+00  3.8991440675895535e-03 -7.8104159793780702e-04 0.0000000000000000e+00  2.5417111976361929e-03 -1.0070950216062560e-03 0.0000000000000000e+00  8.9746837454260098e-03 -1.1065208830886601e-03 0.0000000000000000e+00  8.8036452855839564e-04 -6.8223285571212145e-04 0.0000000000000000e+00  5.1540855563279525e-03 -7.5798751104751865e-04 0.0000000000000000e+00  1.2163968142337878e-03 -2.0263606916283493e-04 0.0000000000000000e+00  3.0516905596435530e-03 -5.4851232795805234e-04 0.0000000000000000e+00  7.4668765964021550e-04 -2.4721544923962576e-04 0.0000000000000000e+00  3.4443682188436988e-05 1.1030515700660381e-03 0.0000000000000000e+00  -2.7646203511102682e-04 -9.8441531634185515e-05 0.0000000000000000e+00  1.6158351083509308e-03 -2.7178148772196966e-04 0.0000000000000000e+00  6.8866926950960337e-04 -5.4187299860401523e-04 0.0000000000000000e+00  1.0800265727930335e-03 9.0022806755858892e-04 0.0000000000000000e+00  4.7423297718394040e-03 -2.3786273817261944e-03 0.0000000000000000e+00  1.3036006234205366e-03 -1.8599004398076250e-03 0.0000000000000000e+00  2.1295348696894465e-03 -2.3657986772034696e-03 0.0000000000000000e+00  -3.1483013483723631e-03 5.7453588927403928e-03 0.0000000000000000e+00  9.2372661510643458e-04 3.9820425479033958e-06 0.0000000000000000e+00  8.0188334192291075e-04 -1.4926829217537648e-04 0.0000000000000000e+00  -1.9526537822343350e-03 3.3841340984461432e-03 0.0000000000000000e+00  1.7820439353356211e-03 7.5668539265208220e-05 0.0000000000000000e+00  7.8042400787362140e-04 2.0202811301378581e-04 0.0000000000000000e+00  5.5539690488767210e-03 -4.9320268517487722e-04 0.0000000000000000e+00  1.4402866785202472e-03 -2.9182189056214556e-03 0.0000000000000000e+00  1.6011154057540850e-03 -1.1125866162086831e-03 0.0000000000000000e+00  -5.4508868167479939e-04 -3.2321153031585585e-04 0.0000000000000000e+00  4.8210530310611056e-04 -4.3000779405502501e-05 0.0000000000000000e+00  3.3701725851642311e-03 5.5313914458819170e-04 0.0000000000000000e+00  9.2748849320344376e-04 -9.5955300681913259e-05 0.0000000000000000e+00  -2.0100388460990418e-04 -4.4301800582653304e-04 0.0000000000000000e+00  1.3428447716627445e-03 -7.0340299132993079e-04 0.0000000000000000e+00  -9.5384888893969549e-04 1.5556060890992043e-04 0.0000000000000000e+00  8.1943426430636842e-04 8.7339451523605423e-05 0.0000000000000000e+00  9.3545247466511269e-04 6.6678162797906640e-06 0.0000000000000000e+00  4.2151938151421472e-03 -2.0515477038311699e-03 0.0000000000000000e+00  -8.1563930729420630e-04 -2.1289246848906164e-03 0.0000000000000000e+00  -2.1710600921969808e-03 -9.1215127131290697e-07 0.0000000000000000e+00  1.2498169115134682e-03 -1.1431156687852387e-03 0.0000000000000000e+00  -7.2659526879747930e-05 8.1246597507920939e-04 0.0000000000000000e+00  1.3365393277112139e-03 -3.3492106403606851e-04 0.0000000000000000e+00  -5.5756362981404387e-04 -3.1510495744922512e-04 0.0000000000000000e+00  -5.6097670114752061e-05 1.0318238508109825e-04 0.0000000000000000e+00  1.4127717620457936e-03 -3.2650521192209250e-04 0.0000000000000000e+00  1.7770425650610608e-03 -1.0729367631604073e-03 0.0000000000000000e+00  2.9732393193737270e-03 -9.6613765134712223e-04 0.0000000000000000e+00  1.4509708299627032e-03 -1.7918007452160788e-04 0.0000000000000000e+00  8.2771211910473549e-04 -7.5862793510022067e-05 0.0000000000000000e+00  2.4481509509167560e-03 -5.3889331786440212e-05 0.0000000000000000e+00  7.9578822547188505e-04 -2.0872365461224135e-05 0.0000000000000000e+00  1.7228782314764634e-03 7.0743407653257135e-04 0.0000000000000000e+00  1.5138577979104252e-03 -7.2766527017042136e-04 0.0000000000000000e+00  -1.3861007846977826e-03 1.6457305018967991e-03 0.0000000000000000e+00  -2.9103243684424113e-03 6.2404911838667677e-04 0.0000000000000000e+00  2.1866701864399940e-04 1.0507365809970183e-03 0.0000000000000000e+00  -1.9061935813325893e-03 -4.5758763689923314e-04 0.0000000000000000e+00  3.7629983171792334e-04 -3.8356175852816387e-04 0.0000000000000000e+00  1.5338260997440393e-03 -5.1609400405443705e-04 0.0000000000000000e+00  1.2002207253559594e-03 -2.4138149419973055e-04 0.0000000000000000e+00  -1.5187280472956375e-03 -7.7184710777967482e-04 0.0000000000000000e+00  -7.4509265630746902e-04 1.1339418133936570e-03 0.0000000000000000e+00  -9.8105737052081327e-04 1.4874726844237777e-03 0.0000000000000000e+00  1.1012445470956964e-03 -5.5594267662296374e-04 0.0000000000000000e+00  -3.2520547139383181e-03 7.3085916642582184e-04 0.0000000000000000e+00  -3.3414408818162275e-03 2.0162323325027764e-03 0.0000000000000000e+00  -1.1551787419195223e-03 1.8375061477869546e-03 0.0000000000000000e+00  1.4521097600517397e-03 -3.8946579369778770e-04 0.0000000000000000e+00  1.3307280725452712e-03 1.8136995379560454e-03 0.0000000000000000e+00  2.2158911199552387e-04 1.3004147324940521e-03 0.0000000000000000e+00  4.2472495341216469e-03 -1.6020844057376595e-03 0.0000000000000000e+00  6.5451380347580999e-04 -5.4933239426548531e-05 0.0000000000000000e+00  9.3189304555256816e-04 -1.6105781471807560e-03 0.0000000000000000e+00  -3.0389948579012472e-03 8.8501339934572124e-04 0.0000000000000000e+00  -2.1784250278611078e-03 1.2321816284094934e-03 0.0000000000000000e+00  -3.5348683431228466e-03 1.5254743055422952e-03 0.0000000000000000e+00  -6.8805435810005266e-04 3.3586835210997368e-04 0.0000000000000000e+00  1.6891415867245857e-03 6.9476688148826246e-04 0.0000000000000000e+00  2.0659993959886393e-04 6.9059278323325664e-04 0.0000000000000000e+00  -3.6228807761980972e-04 2.7424733710177518e-04 0.0000000000000000e+00  2.3858417251193444e-04 2.5206861882214255e-04 0.0000000000000000e+00  -1.0452132593620587e-04 -1.0640968386557458e-03 0.0000000000000000e+00  -7.6737995845932384e-04 -2.6544177832412238e-04 0.0000000000000000e+00  1.6131701941722218e-03 2.3733100191086725e-03 0.0000000000000000e+00  1.4866195832281550e-03 6.0972927879173030e-05 0.0000000000000000e+00  3.7372039394982146e-04 -5.5832758276185338e-04 0.0000000000000000e+00  -4.6628549292141992e-05 9.7718766797011847e-04 0.0000000000000000e+00  3.4500578690610591e-03 -1.2474038596770091e-03 0.0000000000000000e+00  -8.4401659356075746e-04 -9.7064201491726216e-04 0.0000000000000000e+00  -1.4347300343354945e-03 -8.146631090646