<?xml version="1.0"?>
<VTKFile type="UnstructuredGrid"  version="0.1"  >
<UnstructuredGrid>
<Piece  NumberOfPoints="1385" NumberOfCells="2640">
<Points>
<DataArray  type="Float64"  NumberOfComponents="3"  format="ascii">0 0 0  1 0 0  1 1 0  0 1 0  0.5 0 0  1 0.5 0  0.5 1 0  0 0.5 0  0.5 0.5 0  0 0.25 0  0.25 0 0  0.25 1 0  0 0.75 0  1 0.25 0  0.75 0 0  1 0.75 0  0.75 1 0  0.7083333333333333 0.2916666666666667 0  0.2916666666666666 0.7083333333333334 0  0.375 0.25 0  0.75 0.625 0  0.2569444444444444 0.4652777777777778 0  0.5366379310344828 0.7535919540229885 0  0.1875 0.1875 0  0.8125 0.8125 0  0.869047619047619 0.375 0  0.1450441919191919 0.6052714646464646 0  0.375 0.8690476190476191 0  0.5526960784313725 0.1825980392156862 0  0.8385416666666666 0.1614583333333334 0  0.1614583333333333 0.8385416666666667 0  0.6736111111111112 0.4652777777777778 0  0.1367521367521368 0.3477564102564102 0  0.6570970491253563 0.8648656830417855 0  0.5102479397556124 0.3386260301221938 0  0.3654513888888889 0.5737847222222222 0  0.6929750044954185 0.1362784921584263 0  0.388576102743835 0.411911725237599 0  0.6091269841269842 0.5942460317460317 0  0.875 0.6875 0  0.427278890279516 0.119889445139758 0  0.8544456845238095 0.5213913690476191 0  0.125 0 0  0 0.125 0  1 0.875 0  0.875 1 0  0.1280008648150532 0.4769292340226777 0  0.2695382451711197 0.3321750950221553 0  0.7031567235715964 0.7447810921428012 0  0.625 0 0  0.375 0 0  0.125 1 0  0.875 0 0  0 0.375 0  0 0.625 0  1 0.375 0  0.375 1 0  1 0.125 0  0 0.875 0  0.625 1 0  1 0.625 0  0.2979288363930608 0.1201429454643536 0  0.410919540229885 0.7484605911330049 0  0.5325041980395562 0.878905151526474 0  0.4831670727569156 0.6331060043826487 0  0.1735997378973042 0.7204747378973043 0  0.2534919507575758 0.5772372159090909 0  0.2633928571428572 0.8876488095238095 0  0.8199404761904761 0.2730654761904762 0  0.75830270586982 0.3919383189517417 0  0.5750282248382511 0.4237522353023667 0  0.6008360210023379 0.2794828358598495 0  0.08163442644334186 0.6821295860397322 0  0.08333333333333333 0.1875 0  0.2028380815996574 0.08844602719988583 0  0.2766521142611967 0.2325436572164097 0  0.90625 0.78125 0  0.890625 0.890625 0  0.7545696325008384 0.8973565441669461 0  0.5625 0.08086590340834317 0  0.09077380952380953 0.09077380952380952 0  0.4610923478694773 0.209034015149656 0  0.7542527598351648 0.5248380520595106 0  0.6459235536037465 0.3619913988405765 0  0.7560381768882634 0.20506142233852 0  0.07073252688172042 0.8125 0  0.0924753097241701 0.9078102849914793 0  0.9292674731182795 0.1875 0  0.9075246902758297 0.09218971500852073 0  0.8125 0.07073252688172045 0  0.2400955776842301 0.7869705776842302 0  0.9121050213379069 0.2781978201831695 0  0.7916878157143976 0.7239689078571988 0  0.9345238095238094 0.4375 0  0.4375 0.9345238095238095 0  0.3725616989755203 0.6651895248862173 0  0.06536271996350887 0.5625 0  0.9348362560379583 0.5625 0  0.456646798987055 0.8277247094351965 0  0.1875 0.9355758238725954 0  0.6169761231634859 0.6939779188977889 0  0.6226854751147515 0.7827911461419014 0  0.3305695598137626 0.7901697871282585 0  0.5865305325818898 0.5101085479043448 0  0.6622701297028378 0.2177663989757395 0  0.1354166666666667 0.2591702279202279 0  0 0.3125 0  0.2094429575680048 0.3936361846162499 0  0.836666296419157 0.607917407161686 0  0.6875 1 0  0.214261555450504 0.6492551722020035 0  0 0.4375 0  0.07731537126068377 0.40625 0  0.3427725432967068 0.4879566233699599 0  0.3550792513951871 0.3331953632609953 0  0.4462473953896857 0.2887834789342508 0  0.4747801464819794 0.417386052030127 0  0.8229836475148948 0.4443292349237342 0  0.7322605135514757 0.8199240278289671 0  0.6756431877205955 0.5468989748126787 0  0.1968419507215863 0.5194573482612496 0  0.3285590277777778 0.9345238095238095 0  0.8125 1 0  0.4198917601920009 0.5134893045331258 0  0.5232405503206691 0.2595791787880157 0  1 0.9375 0  0.1987510870015086 0.3025185951894431 0  0.5625 1 0  0.6005390654136388 0.9228110509230952 0  0.6411254848194414 0.07704872765442942 0  0.3357233162523242 0.1855113224530532 0  0.6730653396610877 0.6393887462324165 0  0.310966987234063 0.6240019765311626 0  0.7368737836204349 0.07457755202327881 0  0.6192316414418171 0.1485238406378594 0  0.5432429670607106 0.678552703844006 0  0.4754371679695679 0.7103946803120881 0  0.07501324890749672 0.3043839897335739 0  0.5358146975860403 0.5688321463205916 0  0.3115271739500156 0.3982137365971444 0  0.3625191397122174 0.0767854603650549 0  0.5024029442563831 0.1264128223758444 0  0.4375 0 0  0.4699946908887376 0.06379961173775725 0  0.9375 0.71875 0  0.9272105898044465 0.635671179608893 0  0.9375 1 0  0.6690971819568612 0.9331530898202766 0  0.1073454944778885 0.7499206387638554 0  0.8699082999280406 0.2232403652524313 0  0.5773118091863964 0.3548027349159383 0  0.1354166666666667 0.1428571428571428 0  0.3125 0 0  0.8241684193077341 0.9257452995055244 0  0.4352314948354036 0.3586940847489378 0  0.4351301473778832 0.5819726043539077 0  0.8073232928518163 0.3419398170341962 0  0.7775949246947366 0.1298519409204575 0  0.6875 0 0  0.7413513991851041 0.457933324954483 0  0.939453125 0.841796875 0  0.5630355154606987 0.8171875156478349 0  0.9345238095238095 0.3461466592368577 0  0.9375 0 0  1 0.0625 0  0.0625 1 0  0 0.9375 0  0.06552178593177167 0.4969053669623468 0  0.1424866619031703 0.4130277709291224 0  0.1275287182444726 0.5422946908002588 0  0.2637686595586339 0.06413888464529549 0  0.2524263535491086 0.1697437503243817 0  0.7367218397988525 0.6888573970660841 0  0.0625 0 0  0 0.0625 0  0.8463594539285995 0.7578283617857982 0  0.3128751192101563 0.2851997374369947 0  0.4015281788351144 0.1806421385113692 0  0.1910251795116588 0.4553332197174453 0  0.287797471442006 0.5222621440543902 0  0.3962628745986055 0.8097380085535307 0  0.3505895299554843 0.7304878890838692 0  0.5019151500495276 0.9356042615328103 0  0.9374389419410134 0.4999931039076005 0  0.3125 1 0  0.1875 1 0  1 0.5625 0  0.4375 1 0  1 0.3125 0  1 0.4375 0  0.8125 0 0  1 0.1875 0  0.5625 0 0  0.1875 0 0  0 0.1875 0  0 0.5625 0  0 0.6875 0  0 0.8125 0  1 0.6875 0  1 0.8125 0  0.8021696218581627 0.6612893947866073 0  0.06154922295426143 0.6239401126946708 0  0.9359375 0.9359375 0  0.4666158024849896 0.7691515918155014 0  0.2318201265217025 0.7064974250277525 0  0.1565954253579966 0.6635489312486841 0  0.1598132503680848 0.7787147500325552 0  0.3146529991605639 0.8510876378205265 0  0.1461873209418733 0.05982804528877814 0  0.06109554988524315 0.2446551776247686 0  0.8054950308560754 0.5564226538848541 0  0.470541749491976 0.8853316336952531 0  0.6948472567465137 0.4042308563372457 0  0.8802828472348889 0.4658893256343853 0  0.6788075634946739 0.7974194205806069 0  0.2155048659603867 0.2428201584940968 0  0.8131223143423806 0.2132171049028394 0  0.4330798005432235 0.6671274900735726 0  0.6015279126162613 0.2187368078743274 0  0.8061636571464289 0.8703766630361714 0  0.7008230445061776 0.3478568388444072 0  0.8638466246958771 0.3147095987735538 0  0.204801534004265 0.8789209409594009 0  0.2449006736431132 0.9424182882803838 0  0.7611268409371427 0.2643056884799992 0  0.7552800864046191 0.7678006649959446 0  0.5983639638906616 0.864113435029236 0  0.1956559506814437 0.577281203577426 0  0.3527670268164207 0.1320469097565204 0  0.7530364577483248 0.3262386077083089 0  0.4535919187979363 0.4690107087451527 0  0.8824869791666666 0.8336588541666666 0  0.8814453125 0.9451171875 0  0.5582987942628019 0.622421666543858 0  0.6817532446064828 0.6939001801354731 0  0.3830295138888889 0.9450968952922078 0  0.4140603937012541 0.05211333372716105 0  0.5535864501303013 0.3060591985391672 0  0.6560130086346878 0.2729726562211558 0  0.890203140221684 0.5948314305427268 0  0.7043857725999024 0.593980890020804 0  0.5105843922695152 0.8016828014338627 0  0.05365910753708378 0.7315110031682004 0  0.616904573672261 0.4621186633436136 0  0.5338511646455415 0.387875898899613 0  0.5231769258947843 0.4477682463140762 0  0.650302973237622 0.7370722302085519 0  0.3927483139621257 0.4662414504529014 0  0.8034595960585199 0.4972538342758211 0  0.7738337841682438 0.9496376207663251 0  0.7193737507158268 0.954685447650112 0  0.482525916480686 0.5528257169991676 0  0.2533501157346781 0.2809495420003238 0  0.3118487924482243 0.5702930126570319 0  0.6257598847669529 0.4104163315430518 0  0.1354166666666667 0.1955605158730158 0  0.04166666666666666 0.15625 0  0.3956448985530264 0.6174149462065157 0  0.8102897701818546 0.3938784238208349 0  0.2641154190013625 0.8344469561943118 0  0.642852220770013 0.5068794586563659 0  0.05271458179508221 0.355846947336007 0  0.7021551360070266 0.8921457280225779 0  0.5692125776683765 0.1328512638850284 0  0.5206162811937602 0.04865158770992991 0  0.6001838442201555 0.04540556991297563 0  0.2597716608242787 0.4118346398477178 0  0.4040584599473195 0.3179589136784675 0  0.1480337679295207 0.8941560631483065 0  0.1344356707112281 0.9466251177415842 0  0.7114696411829317 0.4983917389078826 0  0.7585704698442475 0.5751926345944629 0  0.2189131956390871 0.04022068508159698 0  0.2476935455192043 0.1123642267635843 0  0.185995005654517 0.1365524537205238 0  0.6223414373308711 0.643380839165121 0  0.5732602596637543 0.7190051747306219 0  0.268358222364537 0.6586246524467934 0  0.3265879848129173 0.2369791782191225 0  0.1267095595787346 0.7034787238999181 0  0.1115202922226038 0.6421997933884982 0  0.3128688392940203 0.07260997451790079 0  0.550724900485678 0.9253360991633187 0  0.7142608810459105 0.2384904702214873 0  0.7045869185243887 0.1871826897887429 0  0.890625 0.734375 0  0.953125 0.765625 0  0.2111812642821677 0.8286209446459138 0  0.9590293078204457 0.09375 0  0.953431269039847 0.1435719386408004 0  0.04097069217955424 0.90625 0  0.04656873096015299 0.8564280613591996 0  0.1078743037981226 0.8541621766048062 0  0.8921256962018773 0.1458378233951939 0  0.8521576979194619 0.1084496634207678 0  0.8655663982740958 0.05464346096571447 0  0.04005659640905543 0.09375 0  0.1001448316533417 0.04246776244228261 
[...]
<PointData  Vectors="f_8505-1"> 
<DataArray  type="Float64"  Name="f_8505-1"  NumberOfComponents="3" format="ascii">5.1110794644641131e-03 8.5425391696411345e-03 0.0000000000000000e+00  -1.0291393085400174e-03 1.5755974279472792e-03 0.0000000000000000e+00  9.7738597994388699e-05 1.9395199120512353e-03 0.0000000000000000e+00  -2.2136729555001467e-04 -4.0296310181975334e-03 0.0000000000000000e+00  -2.5089786648628837e-03 3.9542745062786325e-03 0.0000000000000000e+00  6.7039615520288903e-04 1.3008846584822815e-04 0.0000000000000000e+00  -7.0945443755734516e-05 -7.7982491153077993e-05 0.0000000000000000e+00  -1.0741597796582957e-03 2.0155239796446401e-03 0.0000000000000000e+00  1.1985168492325166e-04 -2.9940238416994005e-04 0.0000000000000000e+00  -1.2939863609170727e-03 4.7798113071404642e-03 0.0000000000000000e+00  -3.6857572595672596e-03 5.5823161004077996e-03 0.0000000000000000e+00  8.7297753605105222e-04 -1.6660013863160606e-03 0.0000000000000000e+00  1.1805418219472115e-04 2.9586310198355490e-04 0.0000000000000000e+00  3.4798971790453654e-04 -1.0277878569750201e-03 0.0000000000000000e+00  -8.7796789135889501e-04 2.9327700962317954e-03 0.0000000000000000e+00  -9.7058094425341750e-05 5.6224573755740627e-04 0.0000000000000000e+00  -1.4324751138327507e-04 7.5800227184318113e-04 0.0000000000000000e+00  -5.5087795811640475e-04 1.4562299788125502e-03 0.0000000000000000e+00  -1.2312749129423687e-03 2.0740663754981589e-03 0.0000000000000000e+00  1.9034795081773563e-03 -1.5497183290561936e-03 0.0000000000000000e+00  1.9187140245697137e-04 -5.9147507038700877e-04 0.0000000000000000e+00  2.8972567233796469e-03 -6.7957864240390008e-03 0.0000000000000000e+00  -4.1737836285292895e-04 2.6953384297947607e-04 0.0000000000000000e+00  2.1534712188426140e-04 -3.4062692669449487e-03 0.0000000000000000e+00  -1.9339409057709731e-04 -1.2847092788608076e-04 0.0000000000000000e+00  -1.9209704424570249e-04 2.8595936328513517e-04 0.0000000000000000e+00  2.8225006341447289e-04 -3.4814368037971305e-03 0.0000000000000000e+00  -1.2034619580467746e-03 5.5559614906358753e-04 0.0000000000000000e+00  -3.1989855558120088e-04 8.5910576484363914e-04 0.0000000000000000e+00  6.0566611462217171e-04 2.2612697681995446e-03 0.0000000000000000e+00  -3.8048087843471699e-04 -9.6041291350722506e-04 0.0000000000000000e+00  1.9632463477707557e-04 2.2697744107506427e-03 0.0000000000000000e+00  5.3630378499072489e-04 1.4082002480848483e-03 0.0000000000000000e+00  -5.4089650465922014e-05 3.2064605934340140e-04 0.0000000000000000e+00  1.8232927876838165e-04 -1.7317702295330140e-03 0.0000000000000000e+00  -1.1333425338025415e-03 2.6473501516575716e-03 0.0000000000000000e+00  -1.8047877009550678e-03 -3.6266034655198353e-03 0.0000000000000000e+00  -1.2348612266165273e-03 7.2526413902328712e-04 0.0000000000000000e+00  7.5087169522170623e-04 1.9931882949379863e-03 0.0000000000000000e+00  -9.8017034210033318e-05 5.7640648109371221e-05 0.0000000000000000e+00  -1.0682103592907959e-03 4.7584948880936518e-03 0.0000000000000000e+00  2.3935750760445998e-04 7.5254300491351127e-04 0.0000000000000000e+00  -1.7550159318535669e-03 4.5562109242148303e-03 0.0000000000000000e+00  1.5368177807503095e-03 -1.8959289839217317e-03 0.0000000000000000e+00  6.0074329941935557e-05 6.9303050749571285e-04 0.0000000000000000e+00  -5.9781561224594949e-04 1.4171560454556708e-03 0.0000000000000000e+00  -7.2336856012212203e-04 -2.3143645168538155e-04 0.0000000000000000e+00  2.9163331373490177e-03 3.8133798235707105e-04 0.0000000000000000e+00  3.0876759400736786e-04 -1.1823398234463488e-04 0.0000000000000000e+00  -8.7340156654579053e-05 5.9791600393969725e-03 0.0000000000000000e+00  -1.0538553466135181e-03 2.0718044258453980e-03 0.0000000000000000e+00  5.8543812711650100e-04 -1.4593915286450149e-03 0.0000000000000000e+00  -5.6251917128816512e-04 2.3316439906111647e-03 0.0000000000000000e+00  4.7351960111126573e-04 3.6390926638051259e-03 0.0000000000000000e+00  -2.2802861035363864e-04 4.8467719026518315e-03 0.0000000000000000e+00  7.9331458086451994e-05 -4.8905085791569420e-04 0.0000000000000000e+00  3.9466677930287235e-04 -2.0400231124355940e-03 0.0000000000000000e+00  8.3063734964744127e-04 -8.4082665060661180e-04 0.0000000000000000e+00  -7.4688914395072920e-04 1.3979636314324253e-03 0.0000000000000000e+00  7.3919184438686988e-05 3.7371373157304570e-04 0.0000000000000000e+00  -1.1387613071517442e-04 1.5130641629483731e-04 0.0000000000000000e+00  -3.0425907644613141e-03 4.3208666059317254e-03 0.0000000000000000e+00  1.1888258025341209e-03 -1.8124056951091035e-03 0.0000000000000000e+00  3.5443707412350300e-04 -6.5018095350651033e-05 0.0000000000000000e+00  5.0217162463242785e-04 -2.6774005399064077e-03 0.0000000000000000e+00  -9.4897166629167023e-04 2.0878741187511239e-03 0.0000000000000000e+00  1.1553324682249063e-04 1.2721826967527574e-03 0.0000000000000000e+00  1.6556532723472905e-03 -2.6761311859121290e-03 0.0000000000000000e+00  1.4980631897486195e-04 -3.5925533225886481e-03 0.0000000000000000e+00  -1.9731707530172768e-03 4.4306060300061282e-04 0.0000000000000000e+00  -1.4441523283666945e-03 8.6628638728518685e-04 0.0000000000000000e+00  -8.9948211362360169e-04 1.5212555834474839e-03 0.0000000000000000e+00  -1.7679480534631554e-04 -3.0735893351190135e-03 0.0000000000000000e+00  3.5976769909986105e-04 -1.4001626564228205e-03 0.0000000000000000e+00  -6.0985495926849033e-04 -8.2975230309131551e-03 0.0000000000000000e+00  -1.6956914140362485e-03 3.7461329390569235e-03 0.0000000000000000e+00  -1.2033632364093837e-04 -6.6881976085404185e-04 0.0000000000000000e+00  -6.5118162028333156e-05 1.1751967803218402e-03 0.0000000000000000e+00  -1.0138819980087265e-04 -4.9442806265937616e-04 0.0000000000000000e+00  7.4478751488500953e-04 -2.9182867471654471e-03 0.0000000000000000e+00  -1.0295569121179838e-03 6.2494620599092021e-04 0.0000000000000000e+00  8.5797276770881517e-04 -1.8456674632221929e-03 0.0000000000000000e+00  -2.4319398041290722e-04 1.3286047019762319e-03 0.0000000000000000e+00  4.7908766970081163e-04 9.0638174364640915e-04 0.0000000000000000e+00  -5.5103975814493260e-05 6.1800266541697866e-04 0.0000000000000000e+00  -1.3429606577137934e-03 -2.8560799495483581e-04 0.0000000000000000e+00  1.1035552423108812e-03 -2.5287460038491937e-03 0.0000000000000000e+00  -2.7798975105508745e-04 1.3324891071435419e-03 0.0000000000000000e+00  1.1398189424116222e-03 -1.3893962951908199e-03 0.0000000000000000e+00  -1.4497159897751792e-03 4.1854698935335944e-04 0.0000000000000000e+00  9.8850149803197257e-04 -2.8009940127115616e-03 0.0000000000000000e+00  1.4112359067568845e-03 5.2441336651202250e-04 0.0000000000000000e+00  -5.5792727947487012e-07 4.8717530314112571e-05 0.0000000000000000e+00  -4.6320560469467742e-04 1.2942709164215170e-04 0.0000000000000000e+00  -4.8022540363368456e-04 -4.0388007101537925e-05 0.0000000000000000e+00  3.0225593167339151e-04 -2.0160173411420618e-03 0.0000000000000000e+00  -1.2525590781577080e-05 -5.1893943224811763e-03 0.0000000000000000e+00  -3.9023945782544337e-04 -6.4891001996402093e-05 0.0000000000000000e+00  -7.0201766135405289e-04 -3.6988653938169593e-04 0.0000000000000000e+00  -2.8400671952797632e-04 -5.0317645125812140e-04 0.0000000000000000e+00  1.0218458913255639e-04 8.3217437759229823e-04 0.0000000000000000e+00  -1.5531940455343107e-04 -1.3135607452012278e-03 0.0000000000000000e+00  -4.2397603104217464e-04 9.7056799787696322e-04 0.0000000000000000e+00  -4.6589084307100315e-04 1.6374187443001548e-03 0.0000000000000000e+00  1.3121668264936838e-03 3.6125034071846334e-05 0.0000000000000000e+00  4.2660919063501677e-04 2.3878379995199992e-03 0.0000000000000000e+00  -1.2468904560230050e-03 1.9444352196189322e-03 0.0000000000000000e+00  -1.2439118570232556e-03 3.1399805239710108e-03 0.0000000000000000e+00  -2.0449357148293932e-04 5.5951708165130490e-04 0.0000000000000000e+00  -2.1808940661526780e-04 2.9427706941638108e-04 0.0000000000000000e+00  1.1056466051369443e-03 -7.3758196813454861e-04 0.0000000000000000e+00  3.5906722195232395e-03 -1.0889712104938110e-03 0.0000000000000000e+00  -2.0668403070109821e-03 3.9527287383538025e-03 0.0000000000000000e+00  -5.2165694721162089e-04 -4.5848362221965920e-03 0.0000000000000000e+00  -1.9407781833332182e-03 -1.0936850440570970e-03 0.0000000000000000e+00  -6.0424192474087192e-04 -1.0693096938135223e-03 0.0000000000000000e+00  7.5815675651443645e-04 4.9063809257947066e-03 0.0000000000000000e+00  -1.9986328668443579e-04 -1.3972957117695834e-03 0.0000000000000000e+00  -1.8462770895491513e-05 9.0840305962804969e-05 0.0000000000000000e+00  -8.9991950707191657e-04 1.2439347221545030e-03 0.0000000000000000e+00  -1.9404303212403246e-03 -2.5320421261137077e-04 0.0000000000000000e+00  3.3718708652668563e-04 -1.1260806337913525e-03 0.0000000000000000e+00  -3.2410878532944322e-04 1.9514535817068766e-03 0.0000000000000000e+00  -3.6589220000887777e-04 -5.7000876925233620e-04 0.0000000000000000e+00  2.3931380403153690e-03 -2.9779983967993906e-03 0.0000000000000000e+00  1.0266548162666113e-04 1.3685899197019107e-03 0.0000000000000000e+00  -1.1320321707272572e-03 2.1631582050969395e-04 0.0000000000000000e+00  2.6675863931803014e-05 -3.8904048699035051e-05 0.0000000000000000e+00  7.2285856913354238e-06 -1.8690295076964123e-05 0.0000000000000000e+00  -1.4810037702516303e-03 1.4064943361037792e-03 0.0000000000000000e+00  1.7162424519251362e-03 -1.7722330135532330e-03 0.0000000000000000e+00  -3.7355758490244554e-05 -6.2612204935774359e-04 0.0000000000000000e+00  4.7903456553752006e-04 -1.9184179908279249e-03 0.0000000000000000e+00  -6.0209919595251055e-04 3.7009104717288222e-03 0.0000000000000000e+00  -4.3060658378584835e-03 1.7875323514695868e-03 0.0000000000000000e+00  -7.0290505407086734e-04 1.3113394039217787e-03 0.0000000000000000e+00  -1.5165062075391314e-04 3.0593698686250861e-03 0.0000000000000000e+00  -6.0722832333413098e-04 3.2953642056137268e-03 0.0000000000000000e+00  -3.4249835164042170e-04 -1.1459524425734310e-03 0.0000000000000000e+00  -1.4431106242703711e-04 2.4651929861631739e-03 0.0000000000000000e+00  3.2330940385284033e-03 3.6389839269868583e-04 0.0000000000000000e+00  -7.9671274892066332e-04 -1.0150051075394988e-03 0.0000000000000000e+00  -1.7299349527374684e-03 5.9215710983479327e-03 0.0000000000000000e+00  5.8161190314865345e-03 -3.3752056109762917e-03 0.0000000000000000e+00  -7.9965387009565363e-06 2.8690373528675198e-04 0.0000000000000000e+00  6.3139091672389629e-06 5.5798583951238300e-05 0.0000000000000000e+00  -3.5731417431504874e-04 2.8719322619793842e-03 0.0000000000000000e+00  4.3789004711124581e-05 -2.0929080611731748e-04 0.0000000000000000e+00  2.5129332248502905e-03 -3.4919116114124084e-03 0.0000000000000000e+00  2.2907013822209381e-03 -3.2644067445664919e-03 0.0000000000000000e+00  -9.4506424628203320e-05 3.3168155268834001e-03 0.0000000000000000e+00  -2.1795274971948063e-03 4.6692126895918045e-03 0.0000000000000000e+00  -1.2839118463069778e-03 6.6754532860962999e-03 0.0000000000000000e+00  2.6084341421025867e-04 6.9408084677090071e-04 0.0000000000000000e+00  -5.4514851807287755e-03 8.7069787575232735e-05 0.0000000000000000e+00  -3.8703673156800160e-04 1.5968842676292167e-04 0.0000000000000000e+00  -2.3956780410913958e-05 1.2906966367447550e-03 0.0000000000000000e+00  -9.4943977620404966e-04 1.0877502534782457e-03 0.0000000000000000e+00  9.8756387932476979e-04 5.4329452382564109e-03 0.0000000000000000e+00  -3.8049584635117817e-04 -1.0130958952302000e-03 0.0000000000000000e+00  3.7257478308471781e-04 -5.2952503902577760e-04 0.0000000000000000e+00  1.8805956905253038e-04 -4.9598141573117490e-04 0.0000000000000000e+00  5.5643796443604894e-04 -1.1528576631085617e-03 0.0000000000000000e+00  -8.9355926788325089e-04 1.8290109164937106e-03 0.0000000000000000e+00  1.0820066317079303e-03 -1.9431783123508774e-03 0.0000000000000000e+00  1.0675363968743513e-03 -1.7803159044231113e-03 0.0000000000000000e+00  1.3348723726208996e-03 -9.8242821576702125e-04 0.0000000000000000e+00  7.2095452492627011e-03 1.3926638795575541e-03 0.0000000000000000e+00  4.4599055083644635e-03 -4.0728571629368247e-03 0.0000000000000000e+00  2.1285366926635154e-03 -5.7207503155256014e-03 0.0000000000000000e+00  -1.6821230069803729e-03 3.1088734077343266e-03 0.0000000000000000e+00  -1.0710724909927046e-04 5.5216814207333410e-03 0.0000000000000000e+00  2.9912132236633199e-04 7.9768717418630020e-04 0.0000000000000000e+00  -1.5241045249649691e-03 4.4185160147640398e-03 0.0000000000000000e+00  2.6652712882276925e-03 -9.2930544373695761e-04 0.0000000000000000e+00  -8.5236305188227088e-05 1.1669341231491018e-04 0.0000000000000000e+00  1.1096795780514315e-03 -1.1543611475393618e-03 0.0000000000000000e+00  7.0072688233208970e-04 1.6132750969534873e-03 0.0000000000000000e+00  2.4030135468566961e-03 -2.6173292723451827e-03 0.0000000000000000e+00  1.3371401001083256e-03 -3.3111224221003968e-03 0.0000000000000000e+00  8.3006693497380787e-04 1.6380175569068265e-04 0.0000000000000000e+00  -6.6610506895372007e-04 -6.4960972300081828e-04 0.0000000000000000e+00  6.2533968425036051e-04 -4.5181852647699702e-04 0.0000000000000000e+00  -1.0715688088060407e-04 5.4195940197041849e-04 0.0000000000000000e+00  8.5273245584448589e-04 -1.2060348674728639e-03 0.0000000000000000e+00  3.7717352516174175e-04 -1.4486141598084932e-03 0.0000000000000000e+00  -2.3287421750695412e-05 3.1547288451392344e-06 0.0000000000000000e+00  1.3223908237451550e-04 -1.2151553152410640e-03 0.0000000000000000e+00  4.4376284809919086e-04 -7.0076114654322931e-04 0.0000000000000000e+00  5.7990557281784407e-04 -6.1510905512298666e-04 0.0000000000000000e+00  -5.4112039936574064e-04 3.5575055049090285e-03 0.0000000000000000e+00  8.2378480476145521e-04 -1.2232402409084275e-03 0.0000000000000000e+00  -1.3390632039373565e-03 5.2125729011257768e-03 0.0000000000000000e+00  6.8382150435859074e-04 7.5714885560963681e-03 0.0000000000000000e+00  -3.3122234182484315e-03 1.8428719652053699e-03 0.0000000000000000e+00  -3.3434488869769848e-04 3.2234283945523647e-03 0.0000000000000000e+00  3.1513646940100246e-03 -1.7653131337868426e-03 0.0000000000000000e+00  -3.3998322728406409e-03 4.6591360378716281e-03 0.0000000000000000e+00  -1.7059178334637534e-04 2.8669946018313353e-04 0.0000000000000000e+00  1.6045867885332546e-04 8.6403568897176698e-04 0.0000000000000000e+00  -7.6106641111630714e-04 4.0962533311571334e-04 0.0000000000000000e+00  1.3571122702300069e-03 -5.9830375242465421e-03 0.0000000000000000e+00  -9.9903109985153833e-05 -1.2190614872831223e-03 0.0000000000000000e+00  -5.7760059147114292e-05 1.3878417182178941e-03 0.0000000000000000e+00  -1.3005837421816782e-03 5.8190396623235925e-04 0.0000000000000000e+00  1.8413001584136656e-03 -2.5284935465046850e-03 0.0000000000000000e+00  4.6036594844255042e-04 -3.0304750255370744e-04 0.0000000000000000e+00  -9.4014240286887079e-04 -8.9496644794827461e-05 0.0000000000000000e+00  -1.2318420239893560e-03 3.9863810562316198e-03 0.0000000000000000e+00  2.8185161663957935e-03 -8.6538611469040203e-04 0.0000000000000000e+00  -2.5158081702562370e-04 3.5373145122433831e-04 0.0000000000000000e+00  -4.8061944552021512e-04 -4.8850725716076090e-04 0.0000000000000000e+00  -5.7654166605679031e-04 3.4695914399002288e-03 0.0000000000000000e+00  2.7712811033326902e-04 1.3981240676171219e-03 0.0000000000000000e+00  3.3641699371164983e-04 1.6092726169486863e-04 0.0000000000000000e+00  -1.6355693009189039e-03 2.6270209177422098e-03 0.0000000000000000e+00  -1.1181785548690004e-03 -1.7107773867101081e-03 0.0000000000000000e+00  -1.2511981465030166e-03 -1.1667607641428529e-05 0.0000000000000000e+00  -3.0326039440249338e-04 3.8674807486826415e-03 0.0000000000000000e+00  -2.2954862819411358e-04 -1.9949427243625664e-04 0.0000000000000000e+00  6.0652479628190261e-04 3.6014555186081720e-03 0.0000000000000000e+00  -6.8311719472227022e-04 8.2655276142490472e-04 0.0000000000000000e+00  -6.5089047527441238e-04 2.5314398263858893e-03 0.0000000000000000e+00  -1.0883992416428978e-03 1.3586280581790665e-04 0.0000000000000000e+00  4.9432733099096817e-04 -8.1320162144223919e-04 0.0000000000000000e+00  -2.5939570106393351e-05 5.7822123381810048e-05 0.0000000000000000e+00  2.0068360270272432e-04 -1.5111409364214240e-04 0.0000000000000000e+00  2.2735977966576365e-04 2.1457031731138672e-04 0.0000000000000000e+00  -1.2094693110123302e-03 2.3797343326246037e-03 0.0000000000000000e+00  5.0270326034408360e-04 -2.8081820498509517e-03 0.0000000000000000e+00  -6.8763126485010307e-04 1.3544590565333504e-03 0.0000000000000000e+00  -1.1755277413927745e-05 2.5409313726444096e-04 0.0000000000000000e+00  -1.2990174643753099e-03 1.6541934197497840e-03 0.0000000000000000e+00  1.4185959255529274e-04 -1.1402115884844304e-03 0.0000000000000000e+00  2.1358730380564896e-04 2.3696364244000896e-04 0.0000000000000000e+00  3.0907318810727112e-04 3.1581635715533006e-04 0.0000000000000000e+00  2.8321820791196478e-03 6.8020234392573414e-03 0.0000000000000000e+00  -8.6319846326542030e-04 2.1241256642814624e-03 0.0000000000000000e+00  -8.2083360056006726e-04 -2.2697584364979231e-03 0.0000000000000000e+00  -4.8091019689972842e-05 2.5390346957941050e-04 0.0000000000000000e+00  -6.4680563719044437e-05 1.6744568399918395e-03 0.0000000000000000e+00  -4.6383555551664452e-05 -9.8913030021769116e-04 0.0000000000000000e+00  -7.5323799238428686e-04 -3.1559468228097324e-04 0.0000000000000000e+00  -1.1825258356244186e-03 8.7883241820634604e-04 0.0000000000000000e+00  6.4202481020157634e-04 -2.3683325530610652e-03 0.0000000000000000e+00  2.7879930567133605e-03 -2.7864333665649412e-03 0.0000000000000000e+00  3.2755342300202453e-04 -7.8119494828210283e-04 0.0000000000000000e+00  -3.1728241683751600e-04 -1.0695211079338315e-04 0.0000000000000000e+00  -4.4903666207170062e-04 4.8568194706746131e-04 0.0000000000000000e+00  -1.0835997818416854e-04 -1.2322403207008521e-05 0.0000000000000000e+00  -1.2204884175134894e-04 1.3667600690871944e-04 0.0000000000000000e+00  -3.0961480409274541e-03 2.7538523783229027e-03 0.0000000000000000e+00  -1.8186432639301382e-03 5.9805668274851564e-03 0.0000000000000000e+00  -1.7961618423612783e-04 -3.6399836390649111e-03 0.0000000000000000e+00  -1.7936142740981337e-03 3.0331329962437910e-03 0.0000000000000000e+00  -2.2784201974224513e-05 -5.4073982153162283e-03 0.0000000000000000e+00  4.4890178740317555e-03 -4.4627997745575639e-03 0.0000000000000000e+00  6.5293596919759435e-04 1.0029043146301138e-03 0.0000000000000000e+00  -1.0557947555863475e-04 2.3413669658970874e-04 0.0000000000000000e+00  1.0442817995062353e-03 -1.2887316423222084e-03 0.0000000000000000e+00  2.5536630109028100e-04 -2.3344254624377151e-03 0.0000000000000000e+00  -1.8170371753001542e-03 1.4864047241727955e-03 0.0000000000000000e+00  -7.9634763200915216e-05 6.1663043279798049e-05 0.0000000000000000e+00  -5.6970610325822956e-04 -4.8000600719216953e-03 0.0000000000000000e+00  3.4949270526016618e-03 -1.7938863102529110e-04 0.0000000000000000e+00  -8.7191603719955456e-05 -2.0514612058218683e-03 0.0000000000000000e+00  1.5476310402066909e-03 -7.1527792233907319e-03 0.0000000000000000e+00  7.4143817338086422e-04 9.7189115926928234e-04 0.0000000000000000e+00  -3.6854390301793228e-04 2.2965195690001481e-03 0.0000000000000000e+00  5.2132042740824424e-04 -1.4271705204107531e-03 0.0000000000000000e+00  1.9205838865855177e-03 -2.4097334055088416e-04 0.0000000000000000e+00  -4.2352770916244636e-05 -7.2893188226963099e-04 0.0000000000000000e+00  -3.2998424124075307e-03 6.7330956266478210e-03 0.0000000000000000e+00  1.1662391009828438e-04 3.2009675834914967e-03 0.0000000000000000e+00  1.2911998105361745e-03 7.3382745028819441e-03 0.0000000000000000e+00  1.2271765382315257e-04 -7.9392275592917404e-04 0.0000000000000000e+00  8.7602632339263029e-05 1.8592884698268573e-04 0.0000000000000000e+00  1.5840256645313861e-03 -1.2792246639504578e-03 0.0000000000000000e+00  9.1386003338102441e-06 -3.9635023822100045e-04 0.0000000000000000e+00  -1.8486912259831306e-04 2.9548644271772096e-04 0.0000000000000000e+00  -8.