<?xml version="1.0"?>
<VTKFile type="UnstructuredGrid"  version="0.1"  >
<UnstructuredGrid>
<Piece  NumberOfPoints="1385" NumberOfCells="2640">
<Points>
<DataArray  type="Float64"  NumberOfComponents="3"  format="ascii">0 0 0  1 0 0  1 1 0  0 1 0  0.5 0 0  1 0.5 0  0.5 1 0  0 0.5 0  0.5 0.5 0  0 0.25 0  0.25 0 0  0.25 1 0  0 0.75 0  1 0.25 0  0.75 0 0  1 0.75 0  0.75 1 0  0.7083333333333333 0.2916666666666667 0  0.2916666666666666 0.7083333333333334 0  0.375 0.25 0  0.75 0.625 0  0.2569444444444444 0.4652777777777778 0  0.5366379310344828 0.7535919540229885 0  0.1875 0.1875 0  0.8125 0.8125 0  0.869047619047619 0.375 0  0.1450441919191919 0.6052714646464646 0  0.375 0.8690476190476191 0  0.5526960784313725 0.1825980392156862 0  0.8385416666666666 0.1614583333333334 0  0.1614583333333333 0.8385416666666667 0  0.6736111111111112 0.4652777777777778 0  0.1367521367521368 0.3477564102564102 0  0.6570970491253563 0.8648656830417855 0  0.5102479397556124 0.3386260301221938 0  0.3654513888888889 0.5737847222222222 0  0.6929750044954185 0.1362784921584263 0  0.388576102743835 0.411911725237599 0  0.6091269841269842 0.5942460317460317 0  0.875 0.6875 0  0.427278890279516 0.119889445139758 0  0.8544456845238095 0.5213913690476191 0  0.125 0 0  0 0.125 0  1 0.875 0  0.875 1 0  0.1280008648150532 0.4769292340226777 0  0.2695382451711197 0.3321750950221553 0  0.7031567235715964 0.7447810921428012 0  0.625 0 0  0.375 0 0  0.125 1 0  0.875 0 0  0 0.375 0  0 0.625 0  1 0.375 0  0.375 1 0  1 0.125 0  0 0.875 0  0.625 1 0  1 0.625 0  0.2979288363930608 0.1201429454643536 0  0.410919540229885 0.7484605911330049 0  0.5325041980395562 0.878905151526474 0  0.4831670727569156 0.6331060043826487 0  0.1735997378973042 0.7204747378973043 0  0.2534919507575758 0.5772372159090909 0  0.2633928571428572 0.8876488095238095 0  0.8199404761904761 0.2730654761904762 0  0.75830270586982 0.3919383189517417 0  0.5750282248382511 0.4237522353023667 0  0.6008360210023379 0.2794828358598495 0  0.08163442644334186 0.6821295860397322 0  0.08333333333333333 0.1875 0  0.2028380815996574 0.08844602719988583 0  0.2766521142611967 0.2325436572164097 0  0.90625 0.78125 0  0.890625 0.890625 0  0.7545696325008384 0.8973565441669461 0  0.5625 0.08086590340834317 0  0.09077380952380953 0.09077380952380952 0  0.4610923478694773 0.209034015149656 0  0.7542527598351648 0.5248380520595106 0  0.6459235536037465 0.3619913988405765 0  0.7560381768882634 0.20506142233852 0  0.07073252688172042 0.8125 0  0.0924753097241701 0.9078102849914793 0  0.9292674731182795 0.1875 0  0.9075246902758297 0.09218971500852073 0  0.8125 0.07073252688172045 0  0.2400955776842301 0.7869705776842302 0  0.9121050213379069 0.2781978201831695 0  0.7916878157143976 0.7239689078571988 0  0.9345238095238094 0.4375 0  0.4375 0.9345238095238095 0  0.3725616989755203 0.6651895248862173 0  0.06536271996350887 0.5625 0  0.9348362560379583 0.5625 0  0.456646798987055 0.8277247094351965 0  0.1875 0.9355758238725954 0  0.6169761231634859 0.6939779188977889 0  0.6226854751147515 0.7827911461419014 0  0.3305695598137626 0.7901697871282585 0  0.5865305325818898 0.5101085479043448 0  0.6622701297028378 0.2177663989757395 0  0.1354166666666667 0.2591702279202279 0  0 0.3125 0  0.2094429575680048 0.3936361846162499 0  0.836666296419157 0.607917407161686 0  0.6875 1 0  0.214261555450504 0.6492551722020035 0  0 0.4375 0  0.07731537126068377 0.40625 0  0.3427725432967068 0.4879566233699599 0  0.3550792513951871 0.3331953632609953 0  0.4462473953896857 0.2887834789342508 0  0.4747801464819794 0.417386052030127 0  0.8229836475148948 0.4443292349237342 0  0.7322605135514757 0.8199240278289671 0  0.6756431877205955 0.5468989748126787 0  0.1968419507215863 0.5194573482612496 0  0.3285590277777778 0.9345238095238095 0  0.8125 1 0  0.4198917601920009 0.5134893045331258 0  0.5232405503206691 0.2595791787880157 0  1 0.9375 0  0.1987510870015086 0.3025185951894431 0  0.5625 1 0  0.6005390654136388 0.9228110509230952 0  0.6411254848194414 0.07704872765442942 0  0.3357233162523242 0.1855113224530532 0  0.6730653396610877 0.6393887462324165 0  0.310966987234063 0.6240019765311626 0  0.7368737836204349 0.07457755202327881 0  0.6192316414418171 0.1485238406378594 0  0.5432429670607106 0.678552703844006 0  0.4754371679695679 0.7103946803120881 0  0.07501324890749672 0.3043839897335739 0  0.5358146975860403 0.5688321463205916 0  0.3115271739500156 0.3982137365971444 0  0.3625191397122174 0.0767854603650549 0  0.5024029442563831 0.1264128223758444 0  0.4375 0 0  0.4699946908887376 0.06379961173775725 0  0.9375 0.71875 0  0.9272105898044465 0.635671179608893 0  0.9375 1 0  0.6690971819568612 0.9331530898202766 0  0.1073454944778885 0.7499206387638554 0  0.8699082999280406 0.2232403652524313 0  0.5773118091863964 0.3548027349159383 0  0.1354166666666667 0.1428571428571428 0  0.3125 0 0  0.8241684193077341 0.9257452995055244 0  0.4352314948354036 0.3586940847489378 0  0.4351301473778832 0.5819726043539077 0  0.8073232928518163 0.3419398170341962 0  0.7775949246947366 0.1298519409204575 0  0.6875 0 0  0.7413513991851041 0.457933324954483 0  0.939453125 0.841796875 0  0.5630355154606987 0.8171875156478349 0  0.9345238095238095 0.3461466592368577 0  0.9375 0 0  1 0.0625 0  0.0625 1 0  0 0.9375 0  0.06552178593177167 0.4969053669623468 0  0.1424866619031703 0.4130277709291224 0  0.1275287182444726 0.5422946908002588 0  0.2637686595586339 0.06413888464529549 0  0.2524263535491086 0.1697437503243817 0  0.7367218397988525 0.6888573970660841 0  0.0625 0 0  0 0.0625 0  0.8463594539285995 0.7578283617857982 0  0.3128751192101563 0.2851997374369947 0  0.4015281788351144 0.1806421385113692 0  0.1910251795116588 0.4553332197174453 0  0.287797471442006 0.5222621440543902 0  0.3962628745986055 0.8097380085535307 0  0.3505895299554843 0.7304878890838692 0  0.5019151500495276 0.9356042615328103 0  0.9374389419410134 0.4999931039076005 0  0.3125 1 0  0.1875 1 0  1 0.5625 0  0.4375 1 0  1 0.3125 0  1 0.4375 0  0.8125 0 0  1 0.1875 0  0.5625 0 0  0.1875 0 0  0 0.1875 0  0 0.5625 0  0 0.6875 0  0 0.8125 0  1 0.6875 0  1 0.8125 0  0.8021696218581627 0.6612893947866073 0  0.06154922295426143 0.6239401126946708 0  0.9359375 0.9359375 0  0.4666158024849896 0.7691515918155014 0  0.2318201265217025 0.7064974250277525 0  0.1565954253579966 0.6635489312486841 0  0.1598132503680848 0.7787147500325552 0  0.3146529991605639 0.8510876378205265 0  0.1461873209418733 0.05982804528877814 0  0.06109554988524315 0.2446551776247686 0  0.8054950308560754 0.5564226538848541 0  0.470541749491976 0.8853316336952531 0  0.6948472567465137 0.4042308563372457 0  0.8802828472348889 0.4658893256343853 0  0.6788075634946739 0.7974194205806069 0  0.2155048659603867 0.2428201584940968 0  0.8131223143423806 0.2132171049028394 0  0.4330798005432235 0.6671274900735726 0  0.6015279126162613 0.2187368078743274 0  0.8061636571464289 0.8703766630361714 0  0.7008230445061776 0.3478568388444072 0  0.8638466246958771 0.3147095987735538 0  0.204801534004265 0.8789209409594009 0  0.2449006736431132 0.9424182882803838 0  0.7611268409371427 0.2643056884799992 0  0.7552800864046191 0.7678006649959446 0  0.5983639638906616 0.864113435029236 0  0.1956559506814437 0.577281203577426 0  0.3527670268164207 0.1320469097565204 0  0.7530364577483248 0.3262386077083089 0  0.4535919187979363 0.4690107087451527 0  0.8824869791666666 0.8336588541666666 0  0.8814453125 0.9451171875 0  0.5582987942628019 0.622421666543858 0  0.6817532446064828 0.6939001801354731 0  0.3830295138888889 0.9450968952922078 0  0.4140603937012541 0.05211333372716105 0  0.5535864501303013 0.3060591985391672 0  0.6560130086346878 0.2729726562211558 0  0.890203140221684 0.5948314305427268 0  0.7043857725999024 0.593980890020804 0  0.5105843922695152 0.8016828014338627 0  0.05365910753708378 0.7315110031682004 0  0.616904573672261 0.4621186633436136 0  0.5338511646455415 0.387875898899613 0  0.5231769258947843 0.4477682463140762 0  0.650302973237622 0.7370722302085519 0  0.3927483139621257 0.4662414504529014 0  0.8034595960585199 0.4972538342758211 0  0.7738337841682438 0.9496376207663251 0  0.7193737507158268 0.954685447650112 0  0.482525916480686 0.5528257169991676 0  0.2533501157346781 0.2809495420003238 0  0.3118487924482243 0.5702930126570319 0  0.6257598847669529 0.4104163315430518 0  0.1354166666666667 0.1955605158730158 0  0.04166666666666666 0.15625 0  0.3956448985530264 0.6174149462065157 0  0.8102897701818546 0.3938784238208349 0  0.2641154190013625 0.8344469561943118 0  0.642852220770013 0.5068794586563659 0  0.05271458179508221 0.355846947336007 0  0.7021551360070266 0.8921457280225779 0  0.5692125776683765 0.1328512638850284 0  0.5206162811937602 0.04865158770992991 0  0.6001838442201555 0.04540556991297563 0  0.2597716608242787 0.4118346398477178 0  0.4040584599473195 0.3179589136784675 0  0.1480337679295207 0.8941560631483065 0  0.1344356707112281 0.9466251177415842 0  0.7114696411829317 0.4983917389078826 0  0.7585704698442475 0.5751926345944629 0  0.2189131956390871 0.04022068508159698 0  0.2476935455192043 0.1123642267635843 0  0.185995005654517 0.1365524537205238 0  0.6223414373308711 0.643380839165121 0  0.5732602596637543 0.7190051747306219 0  0.268358222364537 0.6586246524467934 0  0.3265879848129173 0.2369791782191225 0  0.1267095595787346 0.7034787238999181 0  0.1115202922226038 0.6421997933884982 0  0.3128688392940203 0.07260997451790079 0  0.550724900485678 0.9253360991633187 0  0.7142608810459105 0.2384904702214873 0  0.7045869185243887 0.1871826897887429 0  0.890625 0.734375 0  0.953125 0.765625 0  0.2111812642821677 0.8286209446459138 0  0.9590293078204457 0.09375 0  0.953431269039847 0.1435719386408004 0  0.04097069217955424 0.90625 0  0.04656873096015299 0.8564280613591996 0  0.1078743037981226 0.8541621766048062 0  0.8921256962018773 0.1458378233951939 0  0.8521576979194619 0.1084496634207678 0  0.8655663982740958 0.05464346096571447 0  0.04005659640905543 0.09375 0  0.1001448316533417 0.04246776244228261 
[...]
<PointData  Vectors="f_10029-1"> 
<DataArray  type="Float64"  Name="f_10029-1"  NumberOfComponents="3" format="ascii">4.9925336647518850e-03 8.4094859752749090e-03 0.0000000000000000e+00  -1.0341765958404145e-03 2.0315159510223635e-03 0.0000000000000000e+00  1.1721489445513217e-04 4.1526063515748956e-03 0.0000000000000000e+00  -2.2460275813547927e-04 -2.2634422760407277e-03 0.0000000000000000e+00  -2.5452798750329577e-03 4.1449534603392735e-03 0.0000000000000000e+00  6.6014221342312190e-04 1.4437154907900116e-03 0.0000000000000000e+00  -7.5899731742696533e-05 1.8867689412696645e-03 0.0000000000000000e+00  -1.0717229345367668e-03 2.8997011003600043e-03 0.0000000000000000e+00  1.1725601791359806e-04 8.2203122761446198e-04 0.0000000000000000e+00  -1.3002892713188828e-03 5.2424467539831567e-03 0.0000000000000000e+00  -3.6588380598797368e-03 5.6699780608311830e-03 0.0000000000000000e+00  8.7699141937742095e-04 1.5656247797985238e-04 0.0000000000000000e+00  7.1966673397876003e-05 1.6348365296496906e-03 0.0000000000000000e+00  3.5327979840709973e-04 -1.4937321649414337e-04 0.0000000000000000e+00  -8.8865294186072415e-04 3.2282347625789054e-03 0.0000000000000000e+00  -1.0477926858986253e-04 2.3212493403745108e-03 0.0000000000000000e+00  -1.4785200374379213e-04 2.8161767877338201e-03 0.0000000000000000e+00  -5.3562522968572028e-04 2.3042939989041233e-03 0.0000000000000000e+00  -1.2352323703714453e-03 3.4819363302593647e-03 0.0000000000000000e+00  1.9120273593218429e-03 -9.3051926184080066e-04 0.0000000000000000e+00  2.0187122614451561e-04 8.5580483351268676e-04 0.0000000000000000e+00  2.8729543199594414e-03 -5.8131874012448846e-03 0.0000000000000000e+00  -4.1390506687815043e-04 1.8486319776798788e-03 0.0000000000000000e+00  2.1970888033501538e-04 -2.9900054880435353e-03 0.0000000000000000e+00  -1.9478706653155682e-04 1.6826005515083542e-03 0.0000000000000000e+00  -1.9844295150354919e-04 1.3412147465241804e-03 0.0000000000000000e+00  2.7535629526485194e-04 -2.3407270595884187e-03 0.0000000000000000e+00  -1.2113016847274025e-03 2.2764509907989739e-03 0.0000000000000000e+00  -3.1364611504614763e-04 1.4174608171138203e-03 0.0000000000000000e+00  6.0516475882730258e-04 2.9232304781236593e-03 0.0000000000000000e+00  -3.7346413081546393e-04 6.1822032188008059e-04 0.0000000000000000e+00  2.0171106304194456e-04 3.4074190902234386e-03 0.0000000000000000e+00  5.2625372735119638e-04 2.0833432010961151e-03 0.0000000000000000e+00  -5.4197356174263880e-05 2.1677095850838571e-03 0.0000000000000000e+00  1.8416673550640661e-04 -8.9437431728073909e-04 0.0000000000000000e+00  -1.1340069257944280e-03 3.8588202479068381e-03 0.0000000000000000e+00  -1.8009293413839148e-03 -3.0517093897555365e-03 0.0000000000000000e+00  -1.2263508717737445e-03 1.6500661580458073e-03 0.0000000000000000e+00  7.5357861159792549e-04 3.3290793922223635e-03 0.0000000000000000e+00  -9.7777797604336808e-05 1.6818359016083247e-03 0.0000000000000000e+00  -1.0703018314722401e-03 5.1739489390761340e-03 0.0000000000000000e+00  2.4312300531127923e-04 2.0670633066625938e-03 0.0000000000000000e+00  -1.7907919927567788e-03 4.5444082600706965e-03 0.0000000000000000e+00  1.4401078035329005e-03 -1.6925354422112409e-03 0.0000000000000000e+00  3.7886015178831603e-05 2.6754715748020883e-03 0.0000000000000000e+00  -6.4660449053831597e-04 3.5384408566832230e-03 0.0000000000000000e+00  -7.2683504711820366e-04 6.9054469205402354e-04 0.0000000000000000e+00  2.9154747222749971e-03 1.1256186485068059e-03 0.0000000000000000e+00  3.0610654885144064e-04 1.5229618883493509e-03 0.0000000000000000e+00  -9.7190574603955165e-05 6.2463661243392487e-03 0.0000000000000000e+00  -1.0729743897912160e-03 2.1778774277855951e-03 0.0000000000000000e+00  5.9614541801005882e-04 3.3230423783511169e-04 0.0000000000000000e+00  -5.6579096934275259e-04 2.6436750409265424e-03 0.0000000000000000e+00  4.8542850037928097e-04 4.2792963046675101e-03 0.0000000000000000e+00  -2.5817489912915211e-04 5.9740832653420624e-03 0.0000000000000000e+00  8.4031410567637216e-05 6.0727630956493978e-04 0.0000000000000000e+00  3.9309602315569346e-04 -1.6173177166647500e-04 0.0000000000000000e+00  8.3932223943507397e-04 -1.8263197487615164e-04 0.0000000000000000e+00  -7.1618442054906305e-04 2.9515513994451438e-03 0.0000000000000000e+00  6.4320378619503894e-05 2.3915732655836221e-03 0.0000000000000000e+00  -1.1714552460421199e-04 1.6953015425890654e-03 0.0000000000000000e+00  -3.0481384207261598e-03 4.6675026708763818e-03 0.0000000000000000e+00  1.1881355641826469e-03 -2.9065067137000228e-04 0.0000000000000000e+00  3.5124057450010727e-04 1.7454113757295678e-03 0.0000000000000000e+00  5.0901857561868073e-04 -1.3322789773077088e-03 0.0000000000000000e+00  -9.4645710613085448e-04 3.4758549100479420e-03 0.0000000000000000e+00  1.1715035284344836e-04 2.4192517596523231e-03 0.0000000000000000e+00  1.6693190595163704e-03 -9.7973644078757543e-04 0.0000000000000000e+00  1.5154112425104456e-04 -2.7623103357615067e-03 0.0000000000000000e+00  -1.9746129815422266e-03 1.4775535968818937e-03 0.0000000000000000e+00  -1.4414186676635686e-03 1.8909145234987821e-03 0.0000000000000000e+00  -9.0124383895695971e-04 2.3238846061516306e-03 0.0000000000000000e+00  -1.7340088610729820e-04 -1.8220743774761496e-03 0.0000000000000000e+00  3.6503018566368491e-04 -1.0100650399304102e-03 0.0000000000000000e+00  -6.0892073521575827e-04 -8.0579474336679568e-03 0.0000000000000000e+00  -1.7002111347548790e-03 4.3103155198022615e-03 0.0000000000000000e+00  -1.1714377100713834e-04 1.1230189569383375e-03 0.0000000000000000e+00  -6.1089377931371810e-05 3.1725318700849669e-03 0.0000000000000000e+00  -1.0431427027683148e-04 1.4372188443055513e-03 0.0000000000000000e+00  7.6284360573245999e-04 -2.5280451689822670e-03 0.0000000000000000e+00  -1.0301565182593807e-03 8.4946310742760431e-04 0.0000000000000000e+00  8.5030316543553176e-04 -1.2838047166024891e-03 0.0000000000000000e+00  -2.4479670460647379e-04 2.6002879884563842e-03 0.0000000000000000e+00  4.7718615251292812e-04 1.8485748749990617e-03 0.0000000000000000e+00  -6.9079636599695044e-05 1.3344462058633615e-03 0.0000000000000000e+00  -1.3444288013279486e-03 1.1988563829401023e-03 0.0000000000000000e+00  1.1050701574771237e-03 -8.7120592733721928e-04 0.0000000000000000e+00  -2.7274648249954046e-04 2.0838838983442214e-03 0.0000000000000000e+00  1.1525805529671565e-03 -8.1381185835678897e-04 0.0000000000000000e+00  -1.4534352106710903e-03 9.0903761083652558e-04 0.0000000000000000e+00  9.8127025499697971e-04 -1.2914955384267437e-03 0.0000000000000000e+00  1.3997304956533765e-03 1.4391077043010886e-03 0.0000000000000000e+00  1.4213799669333905e-06 1.6889071189474833e-03 0.0000000000000000e+00  -4.6681848594905034e-04 1.3320244125647172e-03 0.0000000000000000e+00  -4.9317596221663644e-04 1.8169467580189370e-03 0.0000000000000000e+00  3.2073613176333924e-04 -6.7663999896582752e-04 0.0000000000000000e+00  -8.7188451341447485e-06 -4.1872663339863510e-03 0.0000000000000000e+00  -4.0414811393828882e-04 1.3422701578991365e-03 0.0000000000000000e+00  -6.9535691512515280e-04 1.3267655004335819e-03 0.0000000000000000e+00  -2.9033913617409384e-04 1.2422272918803179e-03 0.0000000000000000e+00  1.0817520613995060e-04 2.3741348869894506e-03 0.0000000000000000e+00  -1.4629184978713974e-04 3.6167974908958908e-04 0.0000000000000000e+00  -4.2144556070132521e-04 2.5327673442616513e-03 0.0000000000000000e+00  -4.6473901351007222e-04 2.8345554766968030e-03 0.0000000000000000e+00  1.3035072109639466e-03 7.2215175910495411e-04 0.0000000000000000e+00  4.2771139251082549e-04 2.9463921468776792e-03 0.0000000000000000e+00  -1.2561790147825719e-03 2.4880206029420280e-03 0.0000000000000000e+00  -1.2444861906276425e-03 3.9625566397210156e-03 0.0000000000000000e+00  -2.0377725120734739e-04 2.0311395254008929e-03 0.0000000000000000e+00  -2.2207533625577828e-04 2.3372869637583961e-03 0.0000000000000000e+00  1.1005438373319588e-03 5.2420079689624718e-04 0.0000000000000000e+00  3.5593878851630772e-03 -2.8931874335612204e-04 0.0000000000000000e+00  -2.0488425414422582e-03 4.7103123279634831e-03 0.0000000000000000e+00  -5.2075963434653990e-04 -3.5472312907424519e-03 0.0000000000000000e+00  -1.9261927474734095e-03 -3.4894074450447180e-04 0.0000000000000000e+00  -5.8173849079080193e-04 -3.2840348160730623e-04 0.0000000000000000e+00  7.5841498144862355e-04 5.8577716390123651e-03 0.0000000000000000e+00  -2.0611118155885080e-04 -2.5655209849168416e-04 0.0000000000000000e+00  -2.0694548462791922e-05 1.8713018021502305e-03 0.0000000000000000e+00  -8.9618060024219449e-04 2.5381264114691720e-03 0.0000000000000000e+00  -1.9104919056732424e-03 7.5594546205035582e-04 0.0000000000000000e+00  3.4772933072956067e-04 6.5907818315330807e-04 0.0000000000000000e+00  -3.3893555606862507e-04 4.0300329162882660e-03 0.0000000000000000e+00  -3.7328597160326302e-04 5.1824138202995087e-04 0.0000000000000000e+00  2.4054067722453763e-03 -2.2791268939440531e-03 0.0000000000000000e+00  5.2538299690466160e-05 3.4585511674356719e-03 0.0000000000000000e+00  -1.1353966646584421e-03 8.4606195343202425e-04 0.0000000000000000e+00  2.5192815858407659e-05 1.9467166366940909e-03 0.0000000000000000e+00  1.6582184271323553e-06 1.8890376109929438e-03 0.0000000000000000e+00  -1.4834985817699289e-03 1.8662081294489163e-03 0.0000000000000000e+00  1.7153531055133868e-03 -1.2708831760520291e-03 0.0000000000000000e+00  -3.4572360727997895e-05 8.2350680408080574e-04 0.0000000000000000e+00  4.8074246291191229e-04 -6.7088196996931485e-04 0.0000000000000000e+00  -5.9922769373487372e-04 4.1614349391789563e-03 0.0000000000000000e+00  -4.3037035914521155e-03 2.3457473284309695e-03 0.0000000000000000e+00  -6.9813444873179867e-04 2.7820698212049741e-03 0.0000000000000000e+00  -1.4558776994703227e-04 4.5127097879764794e-03 0.0000000000000000e+00  -6.1281456246504616e-04 3.8973621350099439e-03 0.0000000000000000e+00  -3.4614991532318988e-04 1.1937727682471977e-04 0.0000000000000000e+00  -1.4455880330283997e-04 3.3272848860723325e-03 0.0000000000000000e+00  3.2194719882000862e-03 6.8923524058760101e-04 0.0000000000000000e+00  -7.7615839431484780e-04 -5.5697839196148873e-04 0.0000000000000000e+00  -1.7090641832445846e-03 6.0538641891193538e-03 0.0000000000000000e+00  5.8176124766945144e-03 -3.0514093079197771e-03 0.0000000000000000e+00  -7.2481418214601431e-06 1.9759892373752488e-03 0.0000000000000000e+00  8.1175025825672826e-07 1.6031806442691036e-03 0.0000000000000000e+00  -4.2269383945644069e-04 4.9975304416545992e-03 0.0000000000000000e+00  4.0524179192583630e-05 1.7335726562927054e-03 0.0000000000000000e+00  2.5124453828990123e-03 -2.1165019463562306e-03 0.0000000000000000e+00  2.2908049894114243e-03 -2.4702530718594519e-03 0.0000000000000000e+00  -9.1544769366475520e-05 4.2091146348828112e-03 0.0000000000000000e+00  -2.1587629113195596e-03 5.0150390863490189e-03 0.0000000000000000e+00  -1.3022708517556661e-03 6.8050804755292963e-03 0.0000000000000000e+00  2.5215028571487426e-04 2.7007597281243820e-03 0.0000000000000000e+00  -5.4829378134734217e-03 9.2083218859297848e-04 0.0000000000000000e+00  -3.9156076297826032e-04 1.3897108808746945e-03 0.0000000000000000e+00  -2.3298488337910900e-05 2.2616585072501448e-03 0.0000000000000000e+00  -9.4664799132101974e-04 1.6717668824859527e-03 0.0000000000000000e+00  9.9956025359909141e-04 5.7139544320455541e-03 0.0000000000000000e+00  -3.8073652655255488e-04 1.1943579709713524e-04 0.0000000000000000e+00  3.5900607734426948e-04 1.3643850938464194e-03 0.0000000000000000e+00  1.9677539747755006e-04 1.2087895657325995e-03 0.0000000000000000e+00  5.5358462964579913e-04 -1.4001459405558155e-04 0.0000000000000000e+00  -8.9047927746396935e-04 2.2153747010034766e-03 0.0000000000000000e+00  1.0956155226089000e-03 -1.3937358846139083e-03 0.0000000000000000e+00  1.0818304888573101e-03 8.9483559426667761e-06 0.0000000000000000e+00  1.2981057985674946e-03 6.8576612139525559e-04 0.0000000000000000e+00  7.2080849215006518e-03 2.3274771725201159e-03 0.0000000000000000e+00  4.4693238857409865e-03 -3.2798476477443324e-03 0.0000000000000000e+00  2.1125847331543365e-03 -4.6965414138321962e-03 0.0000000000000000e+00  -1.7036229750371805e-03 3.3550573531612813e-03 0.0000000000000000e+00  -1.1970744153040722e-04 5.9243495651757402e-03 0.0000000000000000e+00  3.0285063966456276e-04 2.3595154223249610e-03 0.0000000000000000e+00  -1.6275933302677481e-03 4.3610158277951417e-03 0.0000000000000000e+00  2.5315164395799511e-03 -8.0428142141638769e-04 0.0000000000000000e+00  -8.0552011015320828e-05 1.8495054998165414e-03 0.0000000000000000e+00  1.1138014372365965e-03 -5.0112091621875503e-04 0.0000000000000000e+00  7.1132366614527222e-04 2.1225017434531729e-03 0.0000000000000000e+00  2.4188219955194037e-03 -1.7400029374054194e-03 0.0000000000000000e+00  1.3417913293196117e-03 -2.2361243429007819e-03 0.0000000000000000e+00  8.2506454498598790e-04 1.7815028848516688e-03 0.0000000000000000e+00  -6.6884806940008192e-04 8.1404958616583360e-04 0.0000000000000000e+00  6.2576178142893096e-04 1.4272860709711494e-03 0.0000000000000000e+00  -1.0291595015989564e-04 1.8410656933488395e-03 0.0000000000000000e+00  8.5042085801558421e-04 6.4048897695011004e-04 0.0000000000000000e+00  3.8748828216924778e-04 3.7083569898193605e-04 0.0000000000000000e+00  -2.3322095305400661e-05 1.4348623110671051e-03 0.0000000000000000e+00  1.3383779890419615e-04 6.9321163936593303e-04 0.0000000000000000e+00  4.5040645826248632e-04 2.8662654018382237e-04 0.0000000000000000e+00  5.8519225437143646e-04 5.9020557859307612e-04 0.0000000000000000e+00  -5.1680900828932747e-04 3.9104597364747092e-03 0.0000000000000000e+00  8.3380171906129337e-04 -4.5305689404905849e-04 0.0000000000000000e+00  -1.3221153697760420e-03 5.3987985392103992e-03 0.0000000000000000e+00  6.4544552481814762e-04 7.6276804864159574e-03 0.0000000000000000e+00  -3.3277404101347916e-03 2.1614659110848373e-03 0.0000000000000000e+00  -3.6979771165340526e-04 4.2121166028415338e-03 0.0000000000000000e+00  3.1476035475289828e-03 -5.3939416043976706e-04 0.0000000000000000e+00  -3.3611287767285054e-03 6.0616667512944609e-03 0.0000000000000000e+00  -1.8091532365431681e-04 1.9427667907130411e-03 0.0000000000000000e+00  1.3042447406199804e-04 2.7371049526534884e-03 0.0000000000000000e+00  -7.5713375650664238e-04 1.9512822901981606e-03 0.0000000000000000e+00  1.3990197497883001e-03 -4.8801084818515909e-03 0.0000000000000000e+00  -1.0311040938511132e-04 8.5055211757172717e-04 0.0000000000000000e+00  -5.7925103291688474e-05 2.9766690075445539e-03 0.0000000000000000e+00  -1.3007686467450055e-03 1.9459039103704567e-03 0.0000000000000000e+00  1.8346911444437290e-03 -1.2761730567327210e-03 0.0000000000000000e+00  4.5734241045165022e-04 1.1624695701913195e-03 0.0000000000000000e+00  -9.4629859864829395e-04 1.5811605875112658e-03 0.0000000000000000e+00  -1.2427333810193170e-03 4.1467249407623023e-03 0.0000000000000000e+00  2.8164758886858824e-03 -4.1457408190632094e-04 0.0000000000000000e+00  -2.4758115083159442e-04 1.7108080917369868e-03 0.0000000000000000e+00  -4.8109002089574487e-04 1.2952918717198723e-03 0.0000000000000000e+00  -5.7639101848736950e-04 4.5164269848998288e-03 0.0000000000000000e+00  2.8226456777417442e-04 2.6191786787180785e-03 0.0000000000000000e+00  3.3808913062470525e-04 1.8853196133770942e-03 0.0000000000000000e+00  -1.6242632275000033e-03 3.1851454262328428e-03 0.0000000000000000e+00  -1.1204014816380652e-03 -9.4447683109098323e-04 0.0000000000000000e+00  -1.2421207656391059e-03 1.3736137014789007e-03 0.0000000000000000e+00  -2.8845462355215679e-04 4.5428241623191208e-03 0.0000000000000000e+00  -2.2874798909621515e-04 1.7200491765077797e-03 0.0000000000000000e+00  6.0351178513347477e-04 4.5426885881103959e-03 0.0000000000000000e+00  -6.8350062252600348e-04 1.7720930314107433e-03 0.0000000000000000e+00  -6.5695660919467224e-04 4.1977936675323402e-03 0.0000000000000000e+00  -1.0766913568922513e-03 1.9281907671242359e-03 0.0000000000000000e+00  5.0117167900272559e-04 1.0371404293402914e-05 0.0000000000000000e+00  -2.5678881043941261e-05 1.7747078228250105e-03 0.0000000000000000e+00  2.0723774747555702e-04 1.6545056851588441e-03 0.0000000000000000e+00  2.3101625197354463e-04 1.3236803269165056e-03 0.0000000000000000e+00  -1.2040416384389743e-03 2.7862734565139531e-03 0.0000000000000000e+00  5.1055611392842540e-04 -1.9113889125794675e-03 0.0000000000000000e+00  -6.8725940325092740e-04 2.4244258183647909e-03 0.0000000000000000e+00  -6.6864018669275356e-06 2.1378119391580676e-03 0.0000000000000000e+00  -1.2945234898455119e-03 3.6875718216429648e-03 0.0000000000000000e+00  1.4819634357973645e-04 2.1906584121586067e-04 0.0000000000000000e+00  2.1264301171832216e-04 1.7806093571339939e-03 0.0000000000000000e+00  3.3183557319701627e-04 2.1551461107279881e-03 0.0000000000000000e+00  2.8224844692332643e-03 7.0481769041496542e-03 0.0000000000000000e+00  -8.6284483964061721e-04 2.9331162010981264e-03 0.0000000000000000e+00  -8.1711320177412980e-04 -1.4735129042748264e-03 0.0000000000000000e+00  -4.9119846763900183e-05 1.7207340841408349e-03 0.0000000000000000e+00  -5.4766398075197084e-05 3.0568454902600737e-03 0.0000000000000000e+00  -5.2092707772485695e-05 6.8822113585015094e-04 0.0000000000000000e+00  -7.5464933820929198e-04 9.8757036779630720e-04 0.0000000000000000e+00  -1.1756464038443820e-03 1.9949430236016648e-03 0.0000000000000000e+00  6.4185943147721154e-04 -1.4308543210890751e-03 0.0000000000000000e+00  2.7895280948851174e-03 -1.7468044958741562e-03 0.0000000000000000e+00  3.2208970597959646e-04 8.2477185745968254e-04 0.0000000000000000e+00  -3.1462772190624447e-04 9.0514585266699657e-04 0.0000000000000000e+00  -4.4808549957929013e-04 1.7356328534890309e-03 0.0000000000000000e+00  -1.1022816542084518e-04 2.0002766675747538e-03 0.0000000000000000e+00  -1.2310600336020138e-04 2.1258300701471663e-03 0.0000000000000000e+00  -3.1029083777337689e-03 3.9642457103837118e-03 0.0000000000000000e+00  -1.8052524585103727e-03 6.5954773105901063e-03 0.0000000000000000e+00  -1.8088508523594554e-04 -2.4899105676967868e-03 0.0000000000000000e+00  -1.7826169845436949e-03 4.0562295222323916e-03 0.0000000000000000e+00  -1.0063885090899188e-05 -5.0123266582247387e-03 0.0000000000000000e+00  4.4926058351840350e-03 -4.1306475542742856e-03 0.0000000000000000e+00  6.5666696270404602e-04 2.2775510317199518e-03 0.0000000000000000e+00  -1.0507865481266396e-04 1.3076305455513798e-03 0.0000000000000000e+00  1.0409275261910444e-03 3.2209070135069055e-04 0.0000000000000000e+00  2.5484712478891639e-04 -1.1387549846587060e-03 0.0000000000000000e+00  -1.8237171887911493e-03 2.1449169345566857e-03 0.0000000000000000e+00  -8.2938308916566872e-05 1.9666312297542355e-03 0.0000000000000000e+00  -5.6422968096575023e-04 -4.3241003434003698e-03 0.0000000000000000e+00  3.5215656825826388e-03 8.2947016710556540e-05 0.0000000000000000e+00  -6.1820493576332340e-05 -1.7441727055732383e-03 0.0000000000000000e+00  1.5488070812689108e-03 -6.3249211484107861e-03 0.0000000000000000e+00  7.4404163355393455e-04 1.7409462724173642e-03 0.0000000000000000e+00  -3.6672605910985194e-04 3.9541107071870158e-03 0.0000000000000000e+00  5.2913301294656970e-04 3.0437254789800959e-04 0.0000000000000000e+00  1.9120848737502302e-03 9.6577215668877670e-04 0.0000000000000000e+00  -4.2852392700980799e-05 6.5402729701311685e-04 0.0000000000000000e+00  -3.3278136897217959e-03 6.8688249079732113e-03 0.0000000000000000e+00  1.1957364381122435e-04 3.5071255001357772e-03 0.0000000000000000e+00  1.3014346063672064e-03 7.6607362110620511e-03 0.0000000000000000e+00  1.2115119722804715e-04 6.2813260234383756e-04 0.0000000000000000e+00  8.3912751520548245e-05 1.7313400720845792e-03 0.0000000000000000e+00  1.5866400620581185e-03 2.0493833668922207e-05 0.0000000000000000e+00  4.3007849549311287e-07 2.0843193878593508e-04 0.0000000000000000e+00  -1.9254160091071806e-04 1.6019936705651940e-03 0.0000000000000000e+00  -8.7900102392334076e-04 2.3367046497829386e-03 0.000000000000000