<?xml version="1.0"?>
<VTKFile type="UnstructuredGrid"  version="0.1"  >
<UnstructuredGrid>
<Piece  NumberOfPoints="1385" NumberOfCells="2640">
<Points>
<DataArray  type="Float64"  NumberOfComponents="3"  format="ascii">0 0 0  1 0 0  1 1 0  0 1 0  0.5 0 0  1 0.5 0  0.5 1 0  0 0.5 0  0.5 0.5 0  0 0.25 0  0.25 0 0  0.25 1 0  0 0.75 0  1 0.25 0  0.75 0 0  1 0.75 0  0.75 1 0  0.7083333333333333 0.2916666666666667 0  0.2916666666666666 0.7083333333333334 0  0.375 0.25 0  0.75 0.625 0  0.2569444444444444 0.4652777777777778 0  0.5366379310344828 0.7535919540229885 0  0.1875 0.1875 0  0.8125 0.8125 0  0.869047619047619 0.375 0  0.1450441919191919 0.6052714646464646 0  0.375 0.8690476190476191 0  0.5526960784313725 0.1825980392156862 0  0.8385416666666666 0.1614583333333334 0  0.1614583333333333 0.8385416666666667 0  0.6736111111111112 0.4652777777777778 0  0.1367521367521368 0.3477564102564102 0  0.6570970491253563 0.8648656830417855 0  0.5102479397556124 0.3386260301221938 0  0.3654513888888889 0.5737847222222222 0  0.6929750044954185 0.1362784921584263 0  0.388576102743835 0.411911725237599 0  0.6091269841269842 0.5942460317460317 0  0.875 0.6875 0  0.427278890279516 0.119889445139758 0  0.8544456845238095 0.5213913690476191 0  0.125 0 0  0 0.125 0  1 0.875 0  0.875 1 0  0.1280008648150532 0.4769292340226777 0  0.2695382451711197 0.3321750950221553 0  0.7031567235715964 0.7447810921428012 0  0.625 0 0  0.375 0 0  0.125 1 0  0.875 0 0  0 0.375 0  0 0.625 0  1 0.375 0  0.375 1 0  1 0.125 0  0 0.875 0  0.625 1 0  1 0.625 0  0.2979288363930608 0.1201429454643536 0  0.410919540229885 0.7484605911330049 0  0.5325041980395562 0.878905151526474 0  0.4831670727569156 0.6331060043826487 0  0.1735997378973042 0.7204747378973043 0  0.2534919507575758 0.5772372159090909 0  0.2633928571428572 0.8876488095238095 0  0.8199404761904761 0.2730654761904762 0  0.75830270586982 0.3919383189517417 0  0.5750282248382511 0.4237522353023667 0  0.6008360210023379 0.2794828358598495 0  0.08163442644334186 0.6821295860397322 0  0.08333333333333333 0.1875 0  0.2028380815996574 0.08844602719988583 0  0.2766521142611967 0.2325436572164097 0  0.90625 0.78125 0  0.890625 0.890625 0  0.7545696325008384 0.8973565441669461 0  0.5625 0.08086590340834317 0  0.09077380952380953 0.09077380952380952 0  0.4610923478694773 0.209034015149656 0  0.7542527598351648 0.5248380520595106 0  0.6459235536037465 0.3619913988405765 0  0.7560381768882634 0.20506142233852 0  0.07073252688172042 0.8125 0  0.0924753097241701 0.9078102849914793 0  0.9292674731182795 0.1875 0  0.9075246902758297 0.09218971500852073 0  0.8125 0.07073252688172045 0  0.2400955776842301 0.7869705776842302 0  0.9121050213379069 0.2781978201831695 0  0.7916878157143976 0.7239689078571988 0  0.9345238095238094 0.4375 0  0.4375 0.9345238095238095 0  0.3725616989755203 0.6651895248862173 0  0.06536271996350887 0.5625 0  0.9348362560379583 0.5625 0  0.456646798987055 0.8277247094351965 0  0.1875 0.9355758238725954 0  0.6169761231634859 0.6939779188977889 0  0.6226854751147515 0.7827911461419014 0  0.3305695598137626 0.7901697871282585 0  0.5865305325818898 0.5101085479043448 0  0.6622701297028378 0.2177663989757395 0  0.1354166666666667 0.2591702279202279 0  0 0.3125 0  0.2094429575680048 0.3936361846162499 0  0.836666296419157 0.607917407161686 0  0.6875 1 0  0.214261555450504 0.6492551722020035 0  0 0.4375 0  0.07731537126068377 0.40625 0  0.3427725432967068 0.4879566233699599 0  0.3550792513951871 0.3331953632609953 0  0.4462473953896857 0.2887834789342508 0  0.4747801464819794 0.417386052030127 0  0.8229836475148948 0.4443292349237342 0  0.7322605135514757 0.8199240278289671 0  0.6756431877205955 0.5468989748126787 0  0.1968419507215863 0.5194573482612496 0  0.3285590277777778 0.9345238095238095 0  0.8125 1 0  0.4198917601920009 0.5134893045331258 0  0.5232405503206691 0.2595791787880157 0  1 0.9375 0  0.1987510870015086 0.3025185951894431 0  0.5625 1 0  0.6005390654136388 0.9228110509230952 0  0.6411254848194414 0.07704872765442942 0  0.3357233162523242 0.1855113224530532 0  0.6730653396610877 0.6393887462324165 0  0.310966987234063 0.6240019765311626 0  0.7368737836204349 0.07457755202327881 0  0.6192316414418171 0.1485238406378594 0  0.5432429670607106 0.678552703844006 0  0.4754371679695679 0.7103946803120881 0  0.07501324890749672 0.3043839897335739 0  0.5358146975860403 0.5688321463205916 0  0.3115271739500156 0.3982137365971444 0  0.3625191397122174 0.0767854603650549 0  0.5024029442563831 0.1264128223758444 0  0.4375 0 0  0.4699946908887376 0.06379961173775725 0  0.9375 0.71875 0  0.9272105898044465 0.635671179608893 0  0.9375 1 0  0.6690971819568612 0.9331530898202766 0  0.1073454944778885 0.7499206387638554 0  0.8699082999280406 0.2232403652524313 0  0.5773118091863964 0.3548027349159383 0  0.1354166666666667 0.1428571428571428 0  0.3125 0 0  0.8241684193077341 0.9257452995055244 0  0.4352314948354036 0.3586940847489378 0  0.4351301473778832 0.5819726043539077 0  0.8073232928518163 0.3419398170341962 0  0.7775949246947366 0.1298519409204575 0  0.6875 0 0  0.7413513991851041 0.457933324954483 0  0.939453125 0.841796875 0  0.5630355154606987 0.8171875156478349 0  0.9345238095238095 0.3461466592368577 0  0.9375 0 0  1 0.0625 0  0.0625 1 0  0 0.9375 0  0.06552178593177167 0.4969053669623468 0  0.1424866619031703 0.4130277709291224 0  0.1275287182444726 0.5422946908002588 0  0.2637686595586339 0.06413888464529549 0  0.2524263535491086 0.1697437503243817 0  0.7367218397988525 0.6888573970660841 0  0.0625 0 0  0 0.0625 0  0.8463594539285995 0.7578283617857982 0  0.3128751192101563 0.2851997374369947 0  0.4015281788351144 0.1806421385113692 0  0.1910251795116588 0.4553332197174453 0  0.287797471442006 0.5222621440543902 0  0.3962628745986055 0.8097380085535307 0  0.3505895299554843 0.7304878890838692 0  0.5019151500495276 0.9356042615328103 0  0.9374389419410134 0.4999931039076005 0  0.3125 1 0  0.1875 1 0  1 0.5625 0  0.4375 1 0  1 0.3125 0  1 0.4375 0  0.8125 0 0  1 0.1875 0  0.5625 0 0  0.1875 0 0  0 0.1875 0  0 0.5625 0  0 0.6875 0  0 0.8125 0  1 0.6875 0  1 0.8125 0  0.8021696218581627 0.6612893947866073 0  0.06154922295426143 0.6239401126946708 0  0.9359375 0.9359375 0  0.4666158024849896 0.7691515918155014 0  0.2318201265217025 0.7064974250277525 0  0.1565954253579966 0.6635489312486841 0  0.1598132503680848 0.7787147500325552 0  0.3146529991605639 0.8510876378205265 0  0.1461873209418733 0.05982804528877814 0  0.06109554988524315 0.2446551776247686 0  0.8054950308560754 0.5564226538848541 0  0.470541749491976 0.8853316336952531 0  0.6948472567465137 0.4042308563372457 0  0.8802828472348889 0.4658893256343853 0  0.6788075634946739 0.7974194205806069 0  0.2155048659603867 0.2428201584940968 0  0.8131223143423806 0.2132171049028394 0  0.4330798005432235 0.6671274900735726 0  0.6015279126162613 0.2187368078743274 0  0.8061636571464289 0.8703766630361714 0  0.7008230445061776 0.3478568388444072 0  0.8638466246958771 0.3147095987735538 0  0.204801534004265 0.8789209409594009 0  0.2449006736431132 0.9424182882803838 0  0.7611268409371427 0.2643056884799992 0  0.7552800864046191 0.7678006649959446 0  0.5983639638906616 0.864113435029236 0  0.1956559506814437 0.577281203577426 0  0.3527670268164207 0.1320469097565204 0  0.7530364577483248 0.3262386077083089 0  0.4535919187979363 0.4690107087451527 0  0.8824869791666666 0.8336588541666666 0  0.8814453125 0.9451171875 0  0.5582987942628019 0.622421666543858 0  0.6817532446064828 0.6939001801354731 0  0.3830295138888889 0.9450968952922078 0  0.4140603937012541 0.05211333372716105 0  0.5535864501303013 0.3060591985391672 0  0.6560130086346878 0.2729726562211558 0  0.890203140221684 0.5948314305427268 0  0.7043857725999024 0.593980890020804 0  0.5105843922695152 0.8016828014338627 0  0.05365910753708378 0.7315110031682004 0  0.616904573672261 0.4621186633436136 0  0.5338511646455415 0.387875898899613 0  0.5231769258947843 0.4477682463140762 0  0.650302973237622 0.7370722302085519 0  0.3927483139621257 0.4662414504529014 0  0.8034595960585199 0.4972538342758211 0  0.7738337841682438 0.9496376207663251 0  0.7193737507158268 0.954685447650112 0  0.482525916480686 0.5528257169991676 0  0.2533501157346781 0.2809495420003238 0  0.3118487924482243 0.5702930126570319 0  0.6257598847669529 0.4104163315430518 0  0.1354166666666667 0.1955605158730158 0  0.04166666666666666 0.15625 0  0.3956448985530264 0.6174149462065157 0  0.8102897701818546 0.3938784238208349 0  0.2641154190013625 0.8344469561943118 0  0.642852220770013 0.5068794586563659 0  0.05271458179508221 0.355846947336007 0  0.7021551360070266 0.8921457280225779 0  0.5692125776683765 0.1328512638850284 0  0.5206162811937602 0.04865158770992991 0  0.6001838442201555 0.04540556991297563 0  0.2597716608242787 0.4118346398477178 0  0.4040584599473195 0.3179589136784675 0  0.1480337679295207 0.8941560631483065 0  0.1344356707112281 0.9466251177415842 0  0.7114696411829317 0.4983917389078826 0  0.7585704698442475 0.5751926345944629 0  0.2189131956390871 0.04022068508159698 0  0.2476935455192043 0.1123642267635843 0  0.185995005654517 0.1365524537205238 0  0.6223414373308711 0.643380839165121 0  0.5732602596637543 0.7190051747306219 0  0.268358222364537 0.6586246524467934 0  0.3265879848129173 0.2369791782191225 0  0.1267095595787346 0.7034787238999181 0  0.1115202922226038 0.6421997933884982 0  0.3128688392940203 0.07260997451790079 0  0.550724900485678 0.9253360991633187 0  0.7142608810459105 0.2384904702214873 0  0.7045869185243887 0.1871826897887429 0  0.890625 0.734375 0  0.953125 0.765625 0  0.2111812642821677 0.8286209446459138 0  0.9590293078204457 0.09375 0  0.953431269039847 0.1435719386408004 0  0.04097069217955424 0.90625 0  0.04656873096015299 0.8564280613591996 0  0.1078743037981226 0.8541621766048062 0  0.8921256962018773 0.1458378233951939 0  0.8521576979194619 0.1084496634207678 0  0.8655663982740958 0.05464346096571447 0  0.04005659640905543 0.09375 0  0.1001448316533417 0.04246776244228261 
[...]
<PointData  Vectors="f_8984-0"> 
<DataArray  type="Float64"  Name="f_8984-0"  NumberOfComponents="3" format="ascii">7.0238671206232393e-03 3.1639288229296770e-03 0.0000000000000000e+00  4.9018894904081589e-04 -3.1124078075247131e-04 0.0000000000000000e+00  2.6173914662199170e-03 2.0806937119119667e-04 0.0000000000000000e+00  4.2121721780134496e-03 3.2194642043739457e-04 0.0000000000000000e+00  2.1665612485460813e-03 -4.9989205297901558e-03 0.0000000000000000e+00  -5.6222498512847842e-06 1.6250513805126382e-04 0.0000000000000000e+00  5.7623098892644199e-04 -2.1778082247688932e-04 0.0000000000000000e+00  3.0599239422940301e-03 -1.2912232501790003e-03 0.0000000000000000e+00  -6.6700921270925330e-04 -5.1843819508230336e-04 0.0000000000000000e+00  7.1803019886234401e-03 3.5262408392891780e-04 0.0000000000000000e+00  2.6334716353251953e-03 -2.7741937305415494e-03 0.0000000000000000e+00  -5.9174018376530538e-04 1.6427632275909420e-03 0.0000000000000000e+00  6.5476128825799930e-03 -1.1765049967372243e-03 0.0000000000000000e+00  -1.0895345973382261e-03 4.8711639800311799e-04 0.0000000000000000e+00  -9.1911982552132993e-05 1.5547052878077151e-03 0.0000000000000000e+00  1.5988339949782680e-03 -1.6244034502019389e-04 0.0000000000000000e+00  1.3043637676620782e-03 -3.9782058611130999e-04 0.0000000000000000e+00  6.7774112916045928e-04 -1.0409043485791268e-03 0.0000000000000000e+00  1.0842232829016592e-03 -4.8452455539629304e-04 0.0000000000000000e+00  -1.5564109748828175e-03 1.8489580949023073e-03 0.0000000000000000e+00  1.1022972287989677e-03 5.2303039801367070e-04 0.0000000000000000e+00  1.9508483067045379e-03 -2.0803807625741021e-03 0.0000000000000000e+00  9.5290731948347550e-04 6.2151644774980405e-04 0.0000000000000000e+00  -1.7381271665982494e-03 -3.1188737801520839e-03 0.0000000000000000e+00  5.8014821204127923e-04 -1.6756168746367593e-04 0.0000000000000000e+00  1.7522558801503219e-03 1.0497677953880245e-04 0.0000000000000000e+00  -1.4525977630957150e-03 1.1491233229521307e-03 0.0000000000000000e+00  2.5681153231968696e-03 8.4995483338500498e-05 0.0000000000000000e+00  3.0836507280492644e-03 7.5258419521387376e-04 0.0000000000000000e+00  -8.5864165499171651e-04 2.8093326928082884e-04 0.0000000000000000e+00  -1.1375734622369148e-03 -2.4305410370736283e-04 0.0000000000000000e+00  -3.6776221755218091e-04 -1.6667408831133304e-03 0.0000000000000000e+00  -1.5905573427486344e-03 5.5336664568445676e-04 0.0000000000000000e+00  6.2573097143054377e-04 -1.2697337455407136e-04 0.0000000000000000e+00  -1.4384426713646196e-03 -1.5699911999508881e-03 0.0000000000000000e+00  5.0083619562448448e-03 2.8680543751190778e-05 0.0000000000000000e+00  -4.9302075150334419e-03 -1.5558299771463522e-04 0.0000000000000000e+00  1.4338303513080652e-03 2.2654148550580980e-03 0.0000000000000000e+00  -2.4458856663076576e-04 1.2743963863490043e-03 0.0000000000000000e+00  5.4126014593185471e-04 1.7097498215507955e-05 0.0000000000000000e+00  1.2365591375782547e-03 -2.4643771011546274e-03 0.0000000000000000e+00  1.1910936039848416e-03 1.3124681825229265e-05 0.0000000000000000e+00  2.3740312503481545e-03 -1.7936583107971099e-03 0.0000000000000000e+00  5.4598643180883144e-03 -2.6586393959082749e-03 0.0000000000000000e+00  2.3759797894226447e-03 -2.9222880520729153e-04 0.0000000000000000e+00  8.7686371558696129e-04 -1.5215043089195392e-03 0.0000000000000000e+00  1.4243260966362926e-03 -6.6454434201873645e-04 0.0000000000000000e+00  5.9402311414382264e-03 3.0040344447567906e-04 0.0000000000000000e+00  2.9967504480780558e-04 2.1943159405619439e-04 0.0000000000000000e+00  4.2194193415381713e-03 -9.7177515655363011e-04 0.0000000000000000e+00  2.1608778122334232e-03 -2.0749349098411372e-04 0.0000000000000000e+00  -9.4561466948490892e-04 7.8137627176664594e-04 0.0000000000000000e+00  2.0807005106903715e-03 -5.9398574872259857e-04 0.0000000000000000e+00  7.0645930631124086e-03 -4.5612330371939632e-04 0.0000000000000000e+00  6.9096424299258177e-03 6.1387234595175304e-05 0.0000000000000000e+00  -8.6476568062722611e-04 2.5773958951061100e-04 0.0000000000000000e+00  -1.9067765359181621e-04 -1.1031555991657631e-04 0.0000000000000000e+00  -6.1066056764293381e-04 8.2626025927786751e-04 0.0000000000000000e+00  2.5963295476082926e-03 -1.0098883329736795e-03 0.0000000000000000e+00  7.7985025712152601e-04 -6.4285932375504208e-05 0.0000000000000000e+00  7.2749934149125188e-04 -8.6867815187453639e-05 0.0000000000000000e+00  -6.1959767061809648e-04 -1.0968860030926896e-03 0.0000000000000000e+00  -1.0330097918371495e-03 1.1305176836225491e-03 0.0000000000000000e+00  3.0511804871201598e-04 1.9670985639065191e-04 0.0000000000000000e+00  -4.5173598271252213e-04 8.6749306852636687e-04 0.0000000000000000e+00  7.5972612820405063e-04 -1.9557795976301892e-03 0.0000000000000000e+00  1.6766334775686210e-03 7.3184641501550197e-04 0.0000000000000000e+00  1.1277022887964413e-04 2.5177110224493319e-04 0.0000000000000000e+00  -2.7080294484406221e-03 1.2408846508201018e-04 0.0000000000000000e+00  -1.0214837868678002e-03 -1.0935474455099476e-03 0.0000000000000000e+00  1.8579595645772370e-05 -9.7902361075959381e-04 0.0000000000000000e+00  5.4524755937343681e-03 6.6138174833320731e-04 0.0000000000000000e+00  -8.8287857513014297e-04 7.8977730854670357e-04 0.0000000000000000e+00  -3.6825567654919511e-03 -1.4154737485280026e-03 0.0000000000000000e+00  -5.5444347096343712e-03 1.5230280306967137e-03 0.0000000000000000e+00  3.9246863944794510e-03 -1.4266474651015190e-03 0.0000000000000000e+00  9.5308427015880482e-04 -4.0267563620915048e-04 0.0000000000000000e+00  7.1555072186440106e-04 2.4248469128665964e-06 0.0000000000000000e+00  6.7356516237638642e-04 -4.5269882335359794e-04 0.0000000000000000e+00  -3.0736086626571711e-03 -1.2162691348712763e-04 0.0000000000000000e+00  3.8285389167063591e-03 -2.1629136521467774e-03 0.0000000000000000e+00  -3.9421490069553805e-03 7.2280231718939089e-04 0.0000000000000000e+00  9.1859638196570682e-04 -7.2873702518918247e-05 0.0000000000000000e+00  -1.6146528125522572e-04 -3.1889243061908931e-05 0.0000000000000000e+00  1.5707148803463915e-03 1.0571063578715622e-03 0.0000000000000000e+00  2.6733224935610290e-03 5.9653146158952374e-04 0.0000000000000000e+00  1.7902808878691179e-03 3.4618370098081741e-04 0.0000000000000000e+00  2.8221273149043533e-03 -8.2881540471234437e-04 0.0000000000000000e+00  -1.6445931372447492e-03 6.4067618338155730e-04 0.0000000000000000e+00  1.6490866246002892e-03 -1.5428102240431050e-03 0.0000000000000000e+00  -7.9068230896219439e-04 8.0836652516459305e-04 0.0000000000000000e+00  1.4438034400424272e-03 6.1818794557124497e-04 0.0000000000000000e+00  7.6710520208393305e-04 -1.2705586214364765e-05 0.0000000000000000e+00  1.4863069015956978e-03 -2.7544276098105008e-04 0.0000000000000000e+00  1.3986525807086023e-03 8.9239954641937377e-05 0.0000000000000000e+00  -2.1678536271242800e-03 -9.1463895314186492e-05 0.0000000000000000e+00  -1.6850995046570451e-03 3.1629783971606233e-03 0.0000000000000000e+00  1.0670297878929552e-03 2.9217494743544379e-05 0.0000000000000000e+00  1.5718525536084528e-03 -1.2362964557778681e-03 0.0000000000000000e+00  -8.0968623348330268e-04 5.9488982093469504e-04 0.0000000000000000e+00  3.2785787332880524e-04 -6.2819900236873571e-04 0.0000000000000000e+00  6.5853870318368268e-04 2.7550360929107470e-04 0.0000000000000000e+00  3.9769659814184737e-04 -3.8050568331415516e-03 0.0000000000000000e+00  1.8209331045715195e-03 -7.8889655082426194e-04 0.0000000000000000e+00  -1.0977865991543272e-03 2.6246996715167514e-03 0.0000000000000000e+00  -1.7919486094174291e-03 -1.5200968886750869e-03 0.0000000000000000e+00  9.8184796708963547e-04 -1.6207567996319268e-03 0.0000000000000000e+00  1.6643427498244059e-05 -1.3226361252831854e-03 0.0000000000000000e+00  1.1667891032804809e-04 2.5487680229316183e-04 0.0000000000000000e+00  7.6786840684772793e-04 -2.6995406847782317e-04 0.0000000000000000e+00  -5.2873867901291437e-05 1.2234360711621301e-03 0.0000000000000000e+00  4.3709727216625239e-03 -1.9483317799922316e-03 0.0000000000000000e+00  -1.2964913002716928e-03 2.2307585383475598e-04 0.0000000000000000e+00  -3.2398978649701214e-03 -1.0858979124892631e-03 0.0000000000000000e+00  -1.3345447386027510e-03 -1.7362146791340054e-03 0.0000000000000000e+00  2.1993423146069464e-03 1.4920044754539352e-03 0.0000000000000000e+00  3.4574262956473239e-04 -2.6094137391146814e-03 0.0000000000000000e+00  -6.3415609632014140e-04 6.1483319431345092e-04 0.0000000000000000e+00  6.1257572839345435e-04 1.8547867497028771e-05 0.0000000000000000e+00  1.7641661826718003e-04 -9.3617401478053521e-04 0.0000000000000000e+00  -3.9576466289020463e-03 -6.2549419200131175e-04 0.0000000000000000e+00  -4.0503307800162226e-04 5.7276632024481265e-05 0.0000000000000000e+00  2.1363343843500563e-03 -1.0044590582844481e-03 0.0000000000000000e+00  2.9919291092273138e-03 -7.3574067696118911e-03 0.0000000000000000e+00  -1.9591786981678692e-03 1.5011329938430403e-03 0.0000000000000000e+00  3.0052349216352940e-03 3.5822263800147712e-05 0.0000000000000000e+00  1.9746768900530884e-03 -9.3516375524418439e-04 0.0000000000000000e+00  4.7028196955777198e-04 3.7077816966222805e-05 0.0000000000000000e+00  7.9224988594526308e-04 -4.8092267353094754e-05 0.0000000000000000e+00  2.4017499018312281e-03 -2.1490803622531422e-03 0.0000000000000000e+00  4.7949259887381428e-03 7.3331527963210036e-04 0.0000000000000000e+00  1.4616183211102222e-03 -1.2722467854452019e-04 0.0000000000000000e+00  -2.8948922587147645e-03 4.7605255376675047e-04 0.0000000000000000e+00  4.2279506889833351e-03 -2.8141540487158350e-04 0.0000000000000000e+00  2.8104967604115874e-03 -1.9370287697041656e-03 0.0000000000000000e+00  1.6769878526676210e-03 -7.3068384951464633e-04 0.0000000000000000e+00  2.0007408990716357e-03 -8.2928600163769848e-04 0.0000000000000000e+00  -2.0414967821485450e-03 -1.5697017365294785e-04 0.0000000000000000e+00  1.8110764182988895e-03 -2.6255598225037612e-04 0.0000000000000000e+00  1.5673665681360488e-03 -2.0893220690200516e-03 0.0000000000000000e+00  3.5526218618071046e-04 3.1032300847760284e-03 0.0000000000000000e+00  -1.4986045271506905e-03 -1.0613585836804897e-03 0.0000000000000000e+00  2.0553611698036255e-03 -5.6586674894395074e-04 0.0000000000000000e+00  -2.9414363567013845e-04 3.4334478874157627e-04 0.0000000000000000e+00  1.0461209307605812e-03 -5.6379379760433126e-05 0.0000000000000000e+00  6.1658664069060335e-04 -1.0857775806911627e-05 0.0000000000000000e+00  1.7903869916263946e-03 2.9421933395626051e-04 0.0000000000000000e+00  4.4799774488257359e-04 8.4244621354394493e-05 0.0000000000000000e+00  -2.9238098802784754e-03 8.8446387639918092e-04 0.0000000000000000e+00  -3.1635623991309824e-04 3.6586108864536301e-04 0.0000000000000000e+00  4.8267197768957232e-03 -7.3648829132075212e-04 0.0000000000000000e+00  1.9990176728820400e-04 -1.8075025963910224e-04 0.0000000000000000e+00  3.5888412353133419e-03 -1.3530905304517849e-03 0.0000000000000000e+00  3.3036279036101883e-04 3.1717066480660601e-04 0.0000000000000000e+00  3.2714719050089356e-03 -1.2197962961306410e-03 0.0000000000000000e+00  5.6630141523008568e-05 -3.0964452231324981e-04 0.0000000000000000e+00  2.6700830443421417e-03 2.3405039833749127e-04 0.0000000000000000e+00  2.6291646155730446e-03 -3.8191778478038436e-03 0.0000000000000000e+00  2.4665895239554449e-03 -2.1809586911352645e-04 0.0000000000000000e+00  -1.1855398727236470e-03 4.0871619969444744e-04 0.0000000000000000e+00  -6.5449243416778680e-04 -9.2786660160454511e-04 0.0000000000000000e+00  2.2632171166078025e-05 3.6804308120197545e-04 0.0000000000000000e+00  -7.6813992273924410e-04 1.7391260246771415e-03 0.0000000000000000e+00  2.2057336244467509e-03 -1.0304261588311824e-03 0.0000000000000000e+00  -2.3783420617585795e-03 6.4248891380383130e-04 0.0000000000000000e+00  -9.5140116560495102e-04 1.0496631076242339e-03 0.0000000000000000e+00  4.2829816345341153e-03 -9.5793802506171895e-04 0.0000000000000000e+00  -3.9835889187493766e-03 9.0373555747563761e-04 0.0000000000000000e+00  6.2321246997389737e-03 -1.1016469268963741e-03 0.0000000000000000e+00  9.2070321229421089e-04 -7.9480206757739610e-04 0.0000000000000000e+00  -1.9759406619973417e-03 -7.1383602858108783e-04 0.0000000000000000e+00  5.5390019648415799e-03 -1.7320143021978568e-05 0.0000000000000000e+00  6.9756342578620165e-04 -4.9131859016197307e-05 0.0000000000000000e+00  2.3958766119365235e-03 -2.1974684931684247e-03 0.0000000000000000e+00  3.9964314886604610e-03 -1.5607804707534821e-03 0.0000000000000000e+00  6.5103017148150329e-04 -3.9489082551840283e-05 0.0000000000000000e+00  -1.3272723542780817e-03 -2.5504960369774309e-04 0.0000000000000000e+00  2.8448360815070245e-03 7.6691750757034837e-04 0.0000000000000000e+00  -2.6171060531388307e-03 2.5652648557468846e-03 0.0000000000000000e+00  1.5071444160042041e-03 1.1950869932150950e-03 0.0000000000000000e+00  -3.6835138768454793e-04 1.3179517148646889e-04 0.0000000000000000e+00  2.3449414292848565e-03 7.9213795475091141e-04 0.0000000000000000e+00  -6.2032977664074648e-05 4.9938735597692178e-04 0.0000000000000000e+00  7.3955788255633959e-04 -5.3536327209945534e-04 0.0000000000000000e+00  2.8717851289781224e-04 1.7745140726305672e-03 0.0000000000000000e+00  -1.2853822305265155e-03 4.6602157286470256e-04 0.0000000000000000e+00  5.5554540119073629e-04 8.2408054193487278e-05 0.0000000000000000e+00  -2.8963878521343008e-06 -2.6788630976749374e-05 0.0000000000000000e+00  -8.9715949728195717e-04 4.6578231379817796e-04 0.0000000000000000e+00  -3.6861726688792545e-04 4.0571081509479476e-04 0.0000000000000000e+00  2.1822440784274142e-03 -7.8193236950411811e-04 0.0000000000000000e+00  -1.9648411791783459e-03 5.6630113657018047e-04 0.0000000000000000e+00  2.3444337022739091e-03 1.5920696720596122e-04 0.0000000000000000e+00  3.8571966073024811e-03 -7.7697472065469319e-04 0.0000000000000000e+00  2.5321122174490800e-03 -1.0049478863600665e-03 0.0000000000000000e+00  8.9485878579980780e-03 -1.1046155701597677e-03 0.0000000000000000e+00  8.4259687259157206e-04 -6.8387698855968976e-04 0.0000000000000000e+00  5.1111876700607297e-03 -7.5823052439677702e-04 0.0000000000000000e+00  9.5577212731439202e-04 -2.0120931577528531e-04 0.0000000000000000e+00  2.7889653390785539e-03 -5.4492317504417534e-04 0.0000000000000000e+00  5.3042625954086240e-04 -2.4729410115034830e-04 0.0000000000000000e+00  -1.0691604384990727e-05 1.0998765899469225e-03 0.0000000000000000e+00  -5.3034523161753146e-04 -9.7332469320239568e-05 0.0000000000000000e+00  1.4680928479649620e-03 -2.7100104674979033e-04 0.0000000000000000e+00  5.9647201044952397e-04 -5.4232637877819673e-04 0.0000000000000000e+00  1.0074686792503993e-03 8.9994232393276227e-04 0.0000000000000000e+00  4.6627783242420657e-03 -2.3789550165955599e-03 0.0000000000000000e+00  1.1846147883584255e-03 -1.8594792671326177e-03 0.0000000000000000e+00  2.0914041339723370e-03 -2.3648975798114640e-03 0.0000000000000000e+00  -3.1719327494650392e-03 5.7448125005466607e-03 0.0000000000000000e+00  7.1359589880601922e-04 3.5433923400290121e-06 0.0000000000000000e+00  6.4846918020344303e-04 -1.4926285605188408e-04 0.0000000000000000e+00  -2.1300347755322420e-03 3.3833509112419710e-03 0.0000000000000000e+00  1.5588080273769749e-03 7.4943767578206959e-05 0.0000000000000000e+00  5.8353280907022292e-04 2.0156135612135084e-04 0.0000000000000000e+00  5.4896117690458341e-03 -4.9346066695943758e-04 0.0000000000000000e+00  1.2458401737043413e-03 -2.9180031348481840e-03 0.0000000000000000e+00  1.4663651057266374e-03 -1.1133618316575484e-03 0.0000000000000000e+00  -6.9209688807015648e-04 -3.2396599402223850e-04 0.0000000000000000e+00  2.5330799782059756e-04 -4.2631306557987144e-05 0.0000000000000000e+00  3.1934755188634222e-03 5.5325836442195935e-04 0.0000000000000000e+00  7.1600736745663788e-04 -9.6141804366304818e-05 0.0000000000000000e+00  -2.9603989818692339e-04 -4.4354221199985268e-04 0.0000000000000000e+00  1.2358378306822713e-03 -7.0401454769373768e-04 0.0000000000000000e+00  -1.1387835994136383e-03 1.5530000717348244e-04 0.0000000000000000e+00  6.0728067910100370e-04 8.6889400391472243e-05 0.0000000000000000e+00  7.5371308954977454e-04 6.3159744445610757e-06 0.0000000000000000e+00  4.1372456253184354e-03 -2.0513622324159356e-03 0.0000000000000000e+00  -9.0306800523111516e-04 -2.1284069093203809e-03 0.0000000000000000e+00  -2.3555431748802690e-03 -5.4037194773079878e-07 0.0000000000000000e+00  1.1208370864527043e-03 -1.1425728501867271e-03 0.0000000000000000e+00  -3.1635189048847981e-04 8.1179327669713406e-04 0.0000000000000000e+00  1.0868614910793219e-03 -3.3506123248254721e-04 0.0000000000000000e+00  -7.1668806346151181e-04 -3.1572508125685800e-04 0.0000000000000000e+00  -2.4651180639699468e-04 1.0255099496735126e-04 0.0000000000000000e+00  1.2781274861162200e-03 -3.2692679938799987e-04 0.0000000000000000e+00  1.6815337637292444e-03 -1.0719593024666816e-03 0.0000000000000000e+00  2.8311925015709312e-03 -9.6606860317576166e-04 0.0000000000000000e+00  1.2899654759452846e-03 -1.8021113865414741e-04 0.0000000000000000e+00  5.9554696776880072e-04 -7.5546425738359156e-05 0.0000000000000000e+00  2.2585305897214968e-03 -5.4217970018953886e-05 0.0000000000000000e+00  6.3600204656527961e-04 -2.0738922427888037e-05 0.0000000000000000e+00  1.6731978242412232e-03 7.0697900015229760e-04 0.0000000000000000e+00  1.3499608823869815e-03 -7.2780021947300012e-04 0.0000000000000000e+00  -1.5274309952105457e-03 1.6452691699199141e-03 0.0000000000000000e+00  -3.0519652477805437e-03 6.2340338894061194e-04 0.0000000000000000e+00  3.1771160067108864e-05 1.0508655077736343e-03 0.0000000000000000e+00  -2.0194034838050337e-03 -4.5823836592356307e-04 0.0000000000000000e+00  1.6958235759357817e-04 -3.8355492808316607e-04 0.0000000000000000e+00  1.3080727772081524e-03 -5.1493516006595930e-04 0.0000000000000000e+00  9.8738051628999421e-04 -2.4058138211882163e-04 0.0000000000000000e+00  -1.6574831821373891e-03 -7.7199425618576143e-04 0.0000000000000000e+00  -8.1864241339281722e-04 1.1336312566695181e-03 0.0000000000000000e+00  -1.0829249056623961e-03 1.4869527647986022e-03 0.0000000000000000e+00  9.3866593883460141e-04 -5.5608317363030498e-04 0.0000000000000000e+00  -3.2928288770259690e-03 7.2938051256022794e-04 0.0000000000000000e+00  -3.3477495704934256e-03 2.0169224752824093e-03 0.0000000000000000e+00  -1.2779056059208391e-03 1.8373690092900745e-03 0.0000000000000000e+00  1.2485005687343002e-03 -3.9000897699172505e-04 0.0000000000000000e+00  1.2240207509741248e-03 1.8129813479112859e-03 0.0000000000000000e+00  5.0320000838353224e-05 1.3001489279101958e-03 0.0000000000000000e+00  4.2204552618537693e-03 -1.5996699942644372e-03 0.0000000000000000e+00  4.4797150043206202e-04 -5.4652277831738225e-05 0.0000000000000000e+00  7.9520438238027890e-04 -1.6101081175615341e-03 0.0000000000000000e+00  -3.1565440638371568e-03 8.8454061783146368e-04 0.0000000000000000e+00  -2.3114508227837336e-03 1.2309295879917800e-03 0.0000000000000000e+00  -3.6126693603736738e-03 1.5245376527751272e-03 0.0000000000000000e+00  -7.9616122226291877e-04 3.3546349087899797e-04 0.0000000000000000e+00  1.6035398050276114e-03 6.9398075594370831e-04 0.0000000000000000e+00  1.2322833262437262e-04 6.8939428666978846e-04 0.0000000000000000e+00  -5.4922558913379999e-04 2.7434127737812827e-04 0.0000000000000000e+00  3.6381249913175918e-05 2.5243470333071198e-04 0.0000000000000000e+00  -1.5775445393095741e-04 -1.0621454110190680e-03 0.0000000000000000e+00  -8.3095620844020400e-04 -2.6516843436767706e-04 0.0000000000000000e+00  1.5618501233768331e-03 2.3728993335906715e-03 0.0000000000000000e+00  1.3114867761714422e-03 6.0828507979065896e-05 0.0000000000000000e+00  2.0515059776788388e-04 -5.5828122663957992e-04 0.0000000000000000e+00  -1.4507180729516676e-04 9.7694848459516396e-04 0.0000000000000000e+00  3.3617530751709557e-03 -1.2476695519426980e-03 0.0000000000000000e+00  -9.1210999324773507e-04 -9.7013670715031142e-04 0.0000000000000000e+00  -1.4963220572580664e-03 -8.15389