<?xml version="1.0"?>
<VTKFile type="UnstructuredGrid"  version="0.1"  >
<UnstructuredGrid>
<Piece  NumberOfPoints="1385" NumberOfCells="2640">
<Points>
<DataArray  type="Float64"  NumberOfComponents="3"  format="ascii">0 0 0  1 0 0  1 1 0  0 1 0  0.5 0 0  1 0.5 0  0.5 1 0  0 0.5 0  0.5 0.5 0  0 0.25 0  0.25 0 0  0.25 1 0  0 0.75 0  1 0.25 0  0.75 0 0  1 0.75 0  0.75 1 0  0.7083333333333333 0.2916666666666667 0  0.2916666666666666 0.7083333333333334 0  0.375 0.25 0  0.75 0.625 0  0.2569444444444444 0.4652777777777778 0  0.5366379310344828 0.7535919540229885 0  0.1875 0.1875 0  0.8125 0.8125 0  0.869047619047619 0.375 0  0.1450441919191919 0.6052714646464646 0  0.375 0.8690476190476191 0  0.5526960784313725 0.1825980392156862 0  0.8385416666666666 0.1614583333333334 0  0.1614583333333333 0.8385416666666667 0  0.6736111111111112 0.4652777777777778 0  0.1367521367521368 0.3477564102564102 0  0.6570970491253563 0.8648656830417855 0  0.5102479397556124 0.3386260301221938 0  0.3654513888888889 0.5737847222222222 0  0.6929750044954185 0.1362784921584263 0  0.388576102743835 0.411911725237599 0  0.6091269841269842 0.5942460317460317 0  0.875 0.6875 0  0.427278890279516 0.119889445139758 0  0.8544456845238095 0.5213913690476191 0  0.125 0 0  0 0.125 0  1 0.875 0  0.875 1 0  0.1280008648150532 0.4769292340226777 0  0.2695382451711197 0.3321750950221553 0  0.7031567235715964 0.7447810921428012 0  0.625 0 0  0.375 0 0  0.125 1 0  0.875 0 0  0 0.375 0  0 0.625 0  1 0.375 0  0.375 1 0  1 0.125 0  0 0.875 0  0.625 1 0  1 0.625 0  0.2979288363930608 0.1201429454643536 0  0.410919540229885 0.7484605911330049 0  0.5325041980395562 0.878905151526474 0  0.4831670727569156 0.6331060043826487 0  0.1735997378973042 0.7204747378973043 0  0.2534919507575758 0.5772372159090909 0  0.2633928571428572 0.8876488095238095 0  0.8199404761904761 0.2730654761904762 0  0.75830270586982 0.3919383189517417 0  0.5750282248382511 0.4237522353023667 0  0.6008360210023379 0.2794828358598495 0  0.08163442644334186 0.6821295860397322 0  0.08333333333333333 0.1875 0  0.2028380815996574 0.08844602719988583 0  0.2766521142611967 0.2325436572164097 0  0.90625 0.78125 0  0.890625 0.890625 0  0.7545696325008384 0.8973565441669461 0  0.5625 0.08086590340834317 0  0.09077380952380953 0.09077380952380952 0  0.4610923478694773 0.209034015149656 0  0.7542527598351648 0.5248380520595106 0  0.6459235536037465 0.3619913988405765 0  0.7560381768882634 0.20506142233852 0  0.07073252688172042 0.8125 0  0.0924753097241701 0.9078102849914793 0  0.9292674731182795 0.1875 0  0.9075246902758297 0.09218971500852073 0  0.8125 0.07073252688172045 0  0.2400955776842301 0.7869705776842302 0  0.9121050213379069 0.2781978201831695 0  0.7916878157143976 0.7239689078571988 0  0.9345238095238094 0.4375 0  0.4375 0.9345238095238095 0  0.3725616989755203 0.6651895248862173 0  0.06536271996350887 0.5625 0  0.9348362560379583 0.5625 0  0.456646798987055 0.8277247094351965 0  0.1875 0.9355758238725954 0  0.6169761231634859 0.6939779188977889 0  0.6226854751147515 0.7827911461419014 0  0.3305695598137626 0.7901697871282585 0  0.5865305325818898 0.5101085479043448 0  0.6622701297028378 0.2177663989757395 0  0.1354166666666667 0.2591702279202279 0  0 0.3125 0  0.2094429575680048 0.3936361846162499 0  0.836666296419157 0.607917407161686 0  0.6875 1 0  0.214261555450504 0.6492551722020035 0  0 0.4375 0  0.07731537126068377 0.40625 0  0.3427725432967068 0.4879566233699599 0  0.3550792513951871 0.3331953632609953 0  0.4462473953896857 0.2887834789342508 0  0.4747801464819794 0.417386052030127 0  0.8229836475148948 0.4443292349237342 0  0.7322605135514757 0.8199240278289671 0  0.6756431877205955 0.5468989748126787 0  0.1968419507215863 0.5194573482612496 0  0.3285590277777778 0.9345238095238095 0  0.8125 1 0  0.4198917601920009 0.5134893045331258 0  0.5232405503206691 0.2595791787880157 0  1 0.9375 0  0.1987510870015086 0.3025185951894431 0  0.5625 1 0  0.6005390654136388 0.9228110509230952 0  0.6411254848194414 0.07704872765442942 0  0.3357233162523242 0.1855113224530532 0  0.6730653396610877 0.6393887462324165 0  0.310966987234063 0.6240019765311626 0  0.7368737836204349 0.07457755202327881 0  0.6192316414418171 0.1485238406378594 0  0.5432429670607106 0.678552703844006 0  0.4754371679695679 0.7103946803120881 0  0.07501324890749672 0.3043839897335739 0  0.5358146975860403 0.5688321463205916 0  0.3115271739500156 0.3982137365971444 0  0.3625191397122174 0.0767854603650549 0  0.5024029442563831 0.1264128223758444 0  0.4375 0 0  0.4699946908887376 0.06379961173775725 0  0.9375 0.71875 0  0.9272105898044465 0.635671179608893 0  0.9375 1 0  0.6690971819568612 0.9331530898202766 0  0.1073454944778885 0.7499206387638554 0  0.8699082999280406 0.2232403652524313 0  0.5773118091863964 0.3548027349159383 0  0.1354166666666667 0.1428571428571428 0  0.3125 0 0  0.8241684193077341 0.9257452995055244 0  0.4352314948354036 0.3586940847489378 0  0.4351301473778832 0.5819726043539077 0  0.8073232928518163 0.3419398170341962 0  0.7775949246947366 0.1298519409204575 0  0.6875 0 0  0.7413513991851041 0.457933324954483 0  0.939453125 0.841796875 0  0.5630355154606987 0.8171875156478349 0  0.9345238095238095 0.3461466592368577 0  0.9375 0 0  1 0.0625 0  0.0625 1 0  0 0.9375 0  0.06552178593177167 0.4969053669623468 0  0.1424866619031703 0.4130277709291224 0  0.1275287182444726 0.5422946908002588 0  0.2637686595586339 0.06413888464529549 0  0.2524263535491086 0.1697437503243817 0  0.7367218397988525 0.6888573970660841 0  0.0625 0 0  0 0.0625 0  0.8463594539285995 0.7578283617857982 0  0.3128751192101563 0.2851997374369947 0  0.4015281788351144 0.1806421385113692 0  0.1910251795116588 0.4553332197174453 0  0.287797471442006 0.5222621440543902 0  0.3962628745986055 0.8097380085535307 0  0.3505895299554843 0.7304878890838692 0  0.5019151500495276 0.9356042615328103 0  0.9374389419410134 0.4999931039076005 0  0.3125 1 0  0.1875 1 0  1 0.5625 0  0.4375 1 0  1 0.3125 0  1 0.4375 0  0.8125 0 0  1 0.1875 0  0.5625 0 0  0.1875 0 0  0 0.1875 0  0 0.5625 0  0 0.6875 0  0 0.8125 0  1 0.6875 0  1 0.8125 0  0.8021696218581627 0.6612893947866073 0  0.06154922295426143 0.6239401126946708 0  0.9359375 0.9359375 0  0.4666158024849896 0.7691515918155014 0  0.2318201265217025 0.7064974250277525 0  0.1565954253579966 0.6635489312486841 0  0.1598132503680848 0.7787147500325552 0  0.3146529991605639 0.8510876378205265 0  0.1461873209418733 0.05982804528877814 0  0.06109554988524315 0.2446551776247686 0  0.8054950308560754 0.5564226538848541 0  0.470541749491976 0.8853316336952531 0  0.6948472567465137 0.4042308563372457 0  0.8802828472348889 0.4658893256343853 0  0.6788075634946739 0.7974194205806069 0  0.2155048659603867 0.2428201584940968 0  0.8131223143423806 0.2132171049028394 0  0.4330798005432235 0.6671274900735726 0  0.6015279126162613 0.2187368078743274 0  0.8061636571464289 0.8703766630361714 0  0.7008230445061776 0.3478568388444072 0  0.8638466246958771 0.3147095987735538 0  0.204801534004265 0.8789209409594009 0  0.2449006736431132 0.9424182882803838 0  0.7611268409371427 0.2643056884799992 0  0.7552800864046191 0.7678006649959446 0  0.5983639638906616 0.864113435029236 0  0.1956559506814437 0.577281203577426 0  0.3527670268164207 0.1320469097565204 0  0.7530364577483248 0.3262386077083089 0  0.4535919187979363 0.4690107087451527 0  0.8824869791666666 0.8336588541666666 0  0.8814453125 0.9451171875 0  0.5582987942628019 0.622421666543858 0  0.6817532446064828 0.6939001801354731 0  0.3830295138888889 0.9450968952922078 0  0.4140603937012541 0.05211333372716105 0  0.5535864501303013 0.3060591985391672 0  0.6560130086346878 0.2729726562211558 0  0.890203140221684 0.5948314305427268 0  0.7043857725999024 0.593980890020804 0  0.5105843922695152 0.8016828014338627 0  0.05365910753708378 0.7315110031682004 0  0.616904573672261 0.4621186633436136 0  0.5338511646455415 0.387875898899613 0  0.5231769258947843 0.4477682463140762 0  0.650302973237622 0.7370722302085519 0  0.3927483139621257 0.4662414504529014 0  0.8034595960585199 0.4972538342758211 0  0.7738337841682438 0.9496376207663251 0  0.7193737507158268 0.954685447650112 0  0.482525916480686 0.5528257169991676 0  0.2533501157346781 0.2809495420003238 0  0.3118487924482243 0.5702930126570319 0  0.6257598847669529 0.4104163315430518 0  0.1354166666666667 0.1955605158730158 0  0.04166666666666666 0.15625 0  0.3956448985530264 0.6174149462065157 0  0.8102897701818546 0.3938784238208349 0  0.2641154190013625 0.8344469561943118 0  0.642852220770013 0.5068794586563659 0  0.05271458179508221 0.355846947336007 0  0.7021551360070266 0.8921457280225779 0  0.5692125776683765 0.1328512638850284 0  0.5206162811937602 0.04865158770992991 0  0.6001838442201555 0.04540556991297563 0  0.2597716608242787 0.4118346398477178 0  0.4040584599473195 0.3179589136784675 0  0.1480337679295207 0.8941560631483065 0  0.1344356707112281 0.9466251177415842 0  0.7114696411829317 0.4983917389078826 0  0.7585704698442475 0.5751926345944629 0  0.2189131956390871 0.04022068508159698 0  0.2476935455192043 0.1123642267635843 0  0.185995005654517 0.1365524537205238 0  0.6223414373308711 0.643380839165121 0  0.5732602596637543 0.7190051747306219 0  0.268358222364537 0.6586246524467934 0  0.3265879848129173 0.2369791782191225 0  0.1267095595787346 0.7034787238999181 0  0.1115202922226038 0.6421997933884982 0  0.3128688392940203 0.07260997451790079 0  0.550724900485678 0.9253360991633187 0  0.7142608810459105 0.2384904702214873 0  0.7045869185243887 0.1871826897887429 0  0.890625 0.734375 0  0.953125 0.765625 0  0.2111812642821677 0.8286209446459138 0  0.9590293078204457 0.09375 0  0.953431269039847 0.1435719386408004 0  0.04097069217955424 0.90625 0  0.04656873096015299 0.8564280613591996 0  0.1078743037981226 0.8541621766048062 0  0.8921256962018773 0.1458378233951939 0  0.8521576979194619 0.1084496634207678 0  0.8655663982740958 0.05464346096571447 0  0.04005659640905543 0.09375 0  0.1001448316533417 0.04246776244228261 
[...]
<PointData  Vectors="f_10124-0"> 
<DataArray  type="Float64"  Name="f_10124-0"  NumberOfComponents="3" format="ascii">7.0566847259542834e-03 3.1664909738173602e-03 0.0000000000000000e+00  1.8182063204424186e-03 -3.1045966371374392e-04 0.0000000000000000e+00  4.2924275199469992e-03 2.3243813384404128e-04 0.0000000000000000e+00  4.5650443146131037e-03 3.1574669030773415e-04 0.0000000000000000e+00  2.8352896619525149e-03 -5.0066623898969379e-03 0.0000000000000000e+00  1.4918824630483947e-03 1.6095535423821600e-04 0.0000000000000000e+00  1.5770499152675688e-03 -2.2043677378265992e-04 0.0000000000000000e+00  3.2311061363105107e-03 -1.2844633627101241e-03 0.0000000000000000e+00  1.7065585955787374e-04 -5.1862472711522727e-04 0.0000000000000000e+00  7.2719917544175148e-03 3.4618752015473826e-04 0.0000000000000000e+00  2.9734555205711984e-03 -2.7710841007610150e-03 0.0000000000000000e+00  7.1205648356791995e-05 1.6464417608961315e-03 0.0000000000000000e+00  6.8008507085563167e-03 -1.1766242245504371e-03 0.0000000000000000e+00  3.2008860853423705e-04 4.8995936835819474e-04 0.0000000000000000e+00  9.0855701768373831e-04 1.5550102062500818e-03 0.0000000000000000e+00  3.1780307709609280e-03 -1.6920223518268390e-04 0.0000000000000000e+00  2.6341867409453473e-03 -4.0144225036706227e-04 0.0000000000000000e+00  1.7266677172984646e-03 -1.0406211673191733e-03 0.0000000000000000e+00  1.7143540383631065e-03 -4.8523711062575017e-04 0.0000000000000000e+00  -9.6689776572601361e-04 1.8520000355891852e-03 0.0000000000000000e+00  2.3156197756380608e-03 5.2470690510424123e-04 0.0000000000000000e+00  2.4601038987414107e-03 -2.0807471972085312e-03 0.0000000000000000e+00  1.9234270229526876e-03 6.2457532941066003e-04 0.0000000000000000e+00  -1.4229887711678080e-03 -3.1203219994129115e-03 0.0000000000000000e+00  1.9404038228675617e-03 -1.6800448490369925e-04 0.0000000000000000e+00  3.0416047118992425e-03 1.0292150860803079e-04 0.0000000000000000e+00  -1.0509964562396780e-03 1.1521608517123623e-03 0.0000000000000000e+00  3.3635000405433913e-03 8.4526930780624474e-05 0.0000000000000000e+00  3.8907836331469191e-03 7.5550948755261278e-04 0.0000000000000000e+00  3.1356678533399644e-04 2.8182025448067569e-04 0.0000000000000000e+00  -6.3967725316391231e-04 -2.4224718556521138e-04 0.0000000000000000e+00  6.8654831048921847e-04 -1.6690209724658626e-03 0.0000000000000000e+00  -1.2900375415971915e-03 5.5298045023971683e-04 0.0000000000000000e+00  1.7960934788327008e-03 -1.2818335398457313e-04 0.0000000000000000e+00  -6.4138917826703223e-04 -1.5704750015504291e-03 0.0000000000000000e+00  5.6960661953093794e-03 2.9997117743520260e-05 0.0000000000000000e+00  -3.9609458138587439e-03 -1.5407983801381080e-04 0.0000000000000000e+00  2.0959982397626958e-03 2.2678030341535889e-03 0.0000000000000000e+00  7.7103078234818170e-04 1.2764585191359251e-03 0.0000000000000000e+00  1.9418440241439927e-03 1.6740259756035751e-05 0.0000000000000000e+00  1.8534630278125232e-03 -2.4690922128587172e-03 0.0000000000000000e+00  2.5123455071570343e-03 1.2987811922049954e-05 0.0000000000000000e+00  2.5436275423704833e-03 -1.8189740397841481e-03 0.0000000000000000e+00  5.5074285510623728e-03 -2.6897577974974531e-03 0.0000000000000000e+00  3.9979536327876680e-03 -3.0202921782833842e-04 0.0000000000000000e+00  2.3782084959965864e-03 -1.5354699739025372e-03 0.0000000000000000e+00  1.7591838711025118e-03 -6.6828702118098952e-04 0.0000000000000000e+00  6.4220664428278418e-03 3.0080546390700907e-04 0.0000000000000000e+00  1.4892803998428415e-03 2.1904975972225215e-04 0.0000000000000000e+00  5.0572303540574659e-03 -9.7190245459343957e-04 0.0000000000000000e+00  2.6616337719815707e-03 -2.1087174171594621e-04 0.0000000000000000e+00  -4.4730951065584341e-04 7.8790062733517297e-04 0.0000000000000000e+00  3.2469932142161284e-03 -5.9291274147807741e-04 0.0000000000000000e+00  7.1886304783914581e-03 -4.5898105305898192e-04 0.0000000000000000e+00  7.1259003972468527e-03 5.4915884259832456e-05 0.0000000000000000e+00  5.8967445072106799e-04 2.5875344422135287e-04 0.0000000000000000e+00  6.3972104453902904e-04 -1.1223815019052087e-04 0.0000000000000000e+00  7.7076744325316432e-04 8.3058191883595323e-04 0.0000000000000000e+00  2.8933569353177709e-03 -1.0002715570625635e-03 0.0000000000000000e+00  1.9459745762101645e-03 -6.5729910831179082e-05 0.0000000000000000e+00  2.2730215663074966e-03 -8.8669680297551135e-05 0.0000000000000000e+00  -1.7965565703928260e-04 -1.0996537195875900e-03 0.0000000000000000e+00  -2.3044180510008779e-04 1.1324405648640288e-03 0.0000000000000000e+00  1.3148153164611275e-03 1.9681208795123677e-04 0.0000000000000000e+00  4.0736827085613176e-04 8.6908136415142717e-04 0.0000000000000000e+00  1.2379126873004963e-03 -1.9570241422767884e-03 0.0000000000000000e+00  2.2123022910941338e-03 7.3307365022229234e-04 0.0000000000000000e+00  7.6243992425900110e-04 2.5496885286919980e-04 0.0000000000000000e+00  -1.5246824221448940e-03 1.2478807051697705e-04 0.0000000000000000e+00  1.2673788840676453e-04 -1.0955828166137969e-03 0.0000000000000000e+00  9.3194754703438407e-04 -9.7897703473623972e-04 0.0000000000000000e+00  6.3578290225283062e-03 6.6212341539533936e-04 0.0000000000000000e+00  -5.5246821794287606e-04 7.9001409852828049e-04 0.0000000000000000e+00  -3.5189592683021863e-03 -1.4175304690700887e-03 0.0000000000000000e+00  -5.2431582790686037e-03 1.5243390539471998e-03 0.0000000000000000e+00  4.3792760414630410e-03 -1.4274133012995454e-03 0.0000000000000000e+00  2.4238750105768652e-03 -4.0349358590877803e-04 0.0000000000000000e+00  2.2054834493744429e-03 4.5759589956759945e-07 0.0000000000000000e+00  1.9856486733393817e-03 -4.5529311299194204e-04 0.0000000000000000e+00  -2.2980069612329561e-03 -1.2256944018294988e-04 0.0000000000000000e+00  3.9877234695150556e-03 -2.1654865301563441e-03 0.0000000000000000e+00  -3.2588933648321607e-03 7.2295647794817883e-04 0.0000000000000000e+00  2.1040729467578885e-03 -7.2277425135832286e-05 0.0000000000000000e+00  8.2299106369654513e-04 -3.1807479577236012e-05 0.0000000000000000e+00  2.6531546667126495e-03 1.0579342523282540e-03 0.0000000000000000e+00  3.0356569127505395e-03 6.0099993523852991e-04 0.0000000000000000e+00  2.2180600119603962e-03 3.5027808929191933e-04 0.0000000000000000e+00  4.1191921490414370e-03 -8.2589278845877293e-04 0.0000000000000000e+00  -4.0968865952140002e-04 6.4767284764084311e-04 0.0000000000000000e+00  2.7627558886938000e-03 -1.5445946773150784e-03 0.0000000000000000e+00  -2.0172566553586712e-04 8.0899620376430640e-04 0.0000000000000000e+00  2.7563710256985779e-03 6.2087601363242876e-04 0.0000000000000000e+00  2.0684468990441011e-03 -9.9824061352145029e-06 0.0000000000000000e+00  2.8675112445130176e-03 -2.7587155522010461e-04 0.0000000000000000e+00  2.2932642224007525e-03 8.7308544621556280e-05 0.0000000000000000e+00  -1.4506812606324161e-03 -9.0908619593638864e-05 0.0000000000000000e+00  -1.4240004047925273e-03 3.1770103045831305e-03 0.0000000000000000e+00  2.4868138967720391e-03 2.6380638505144327e-05 0.0000000000000000e+00  2.4641776251127958e-03 -1.2371968927785768e-03 0.0000000000000000e+00  -2.4891821921125038e-04 5.9822811230707002e-04 0.0000000000000000e+00  1.3887362576065422e-03 -6.2725037898474743e-04 0.0000000000000000e+00  1.7526688473825389e-03 2.7617021294540752e-04 0.0000000000000000e+00  1.1056016263915288e-03 -3.8075195758491553e-03 0.0000000000000000e+00  2.7821215200484360e-03 -7.9057790393614197e-04 0.0000000000000000e+00  -1.3761843231698814e-04 2.6267973361592300e-03 0.0000000000000000e+00  -1.5236491754675200e-03 -1.5224804834344031e-03 0.0000000000000000e+00  1.0905659074320151e-03 -1.6240392831739180e-03 0.0000000000000000e+00  4.3435336265160352e-04 -1.3249568592755255e-03 0.0000000000000000e+00  1.4397250742723246e-03 2.5508243876876981e-04 0.0000000000000000e+00  2.0168104846399223e-03 -2.7205856070271705e-04 0.0000000000000000e+00  4.5178571747269281e-04 1.2236417956616773e-03 0.0000000000000000e+00  4.5205397876435689e-03 -1.9589264014491939e-03 0.0000000000000000e+00  -1.0610710443895431e-03 2.2678375184676528e-04 0.0000000000000000e+00  -2.6196090075567922e-03 -1.0866385808016819e-03 0.0000000000000000e+00  -7.4207053776022985e-04 -1.7383631370975015e-03 0.0000000000000000e+00  2.8960173679655281e-03 1.4967033331209768e-03 0.0000000000000000e+00  1.1218293560852654e-03 -2.6117517889068741e-03 0.0000000000000000e+00  6.1232226435919230e-04 6.1334972476925862e-04 0.0000000000000000e+00  1.8663193201261593e-03 1.9274376567195292e-05 0.0000000000000000e+00  1.2628255887404897e-03 -9.3651559335205094e-04 0.0000000000000000e+00  -3.5219603079754019e-03 -6.2547490567284260e-04 0.0000000000000000e+00  3.3994941473867904e-04 5.9628085886879144e-05 0.0000000000000000e+00  3.5469195883058519e-03 -1.0083057036499919e-03 0.0000000000000000e+00  3.7307306227090629e-03 -7.3667018919918049e-03 0.0000000000000000e+00  -1.1710711923725485e-03 1.5029907946253630e-03 0.0000000000000000e+00  4.6691663909416321e-03 1.8114027880291700e-05 0.0000000000000000e+00  2.3438533296699011e-03 -9.3482241633023144e-04 0.0000000000000000e+00  1.5508080706390830e-03 3.6644513175402519e-05 0.0000000000000000e+00  1.8984009197952143e-03 -4.6594473967047747e-05 0.0000000000000000e+00  3.2872809718576998e-03 -2.1516040086436562e-03 0.0000000000000000e+00  5.3142346617011437e-03 7.3485966644808512e-04 0.0000000000000000e+00  2.5782219247196484e-03 -1.2642160567413670e-04 0.0000000000000000e+00  -2.2700436371082223e-03 4.7972190815619414e-04 0.0000000000000000e+00  5.2421585288422489e-03 -2.8022331668898137e-04 0.0000000000000000e+00  3.6890743260662947e-03 -1.9406166790616286e-03 0.0000000000000000e+00  2.6359233785064546e-03 -7.3207277162012138e-04 0.0000000000000000e+00  2.8748988061590660e-03 -8.2482592477730351e-04 0.0000000000000000e+00  -1.8467889150021075e-03 -1.6096997603553412e-04 0.0000000000000000e+00  2.7193234568319816e-03 -2.6183904259478771e-04 0.0000000000000000e+00  2.1221771949509250e-03 -2.0886606670038124e-03 0.0000000000000000e+00  8.6605711967803912e-04 3.1053904937934302e-03 0.0000000000000000e+00  -7.8689474394621865e-04 -1.0597522933819259e-03 0.0000000000000000e+00  2.6394700364661006e-03 -5.6729035878201356e-04 0.0000000000000000e+00  3.4809809418916214e-04 3.4420798446586220e-04 0.0000000000000000e+00  2.5196424924605471e-03 -5.9059361390379080e-05 0.0000000000000000e+00  2.0582622816059473e-03 -1.3296789625371480e-05 0.0000000000000000e+00  3.3737822567583547e-03 2.7535213819560538e-04 0.0000000000000000e+00  1.6459886456500505e-03 8.3053186078874266e-05 0.0000000000000000e+00  -2.5309492533926383e-03 8.8656698455035334e-04 0.0000000000000000e+00  9.1886091998946533e-04 3.6744680100568247e-04 0.0000000000000000e+00  5.7233489961697678e-03 -7.3673340373729809e-04 0.0000000000000000e+00  4.3419077147284453e-04 -1.7866101142592812e-04 0.0000000000000000e+00  4.0083288430355713e-03 -1.3576377459522970e-03 0.0000000000000000e+00  1.7399271044555359e-03 3.1305218056054728e-04 0.0000000000000000e+00  3.9777069812151752e-03 -1.2225924956753246e-03 0.0000000000000000e+00  8.3936695052758354e-04 -3.1008833959531896e-04 0.0000000000000000e+00  3.8651012870041194e-03 2.3582217376494417e-04 0.0000000000000000e+00  3.7154091306280165e-03 -3.8217644817231970e-03 0.0000000000000000e+00  3.3864563123274186e-03 -2.1585684004755263e-04 0.0000000000000000e+00  -4.3554020824662433e-05 4.1120416599788327e-04 0.0000000000000000e+00  8.5464764591918483e-04 -9.2659910315868489e-04 0.0000000000000000e+00  1.0500340246420870e-03 3.6984019008463138e-04 0.0000000000000000e+00  5.7872076520352838e-04 1.7384899318869185e-03 0.0000000000000000e+00  3.4581949573483906e-03 -1.0336488279809953e-03 0.0000000000000000e+00  -1.0175518836972653e-03 6.4713983400056904e-04 0.0000000000000000e+00  -5.3430770080603227e-04 1.0550638627045330e-03 0.0000000000000000e+00  4.6083202206258405e-03 -9.6345416794768645e-04 0.0000000000000000e+00  -3.7504531334009014e-03 8.9650482063932972e-04 0.0000000000000000e+00  6.5663200394656387e-03 -1.1022421379097396e-03 0.0000000000000000e+00  1.2781543115559213e-03 -7.9680691321724038e-04 0.0000000000000000e+00  -1.6070621387189949e-03 -7.2173279488622693e-04 0.0000000000000000e+00  5.9465212864108297e-03 -1.6996272274964071e-05 0.0000000000000000e+00  1.9080348542910089e-03 -4.9603811354588826e-05 0.0000000000000000e+00  2.4813691579039544e-03 -2.2258239082975548e-03 0.0000000000000000e+00  4.0389813170647743e-03 -1.5810483825883376e-03 0.0000000000000000e+00  2.0333137651634536e-03 -3.7130487407923719e-05 0.0000000000000000e+00  -8.1604561352449211e-04 -2.5478610563942246e-04 0.0000000000000000e+00  3.4499845617025071e-03 7.6946430524988361e-04 0.0000000000000000e+00  -2.2129604998996286e-03 2.5677028314905997e-03 0.0000000000000000e+00  2.0728145215252202e-03 1.1959970898293489e-03 0.0000000000000000e+00  4.3215450537869231e-04 1.3289361079617419e-04 0.0000000000000000e+00  3.0619130386034155e-03 7.9360990195577073e-04 0.0000000000000000e+00  9.1640127684315220e-04 4.9966076634567255e-04 0.0000000000000000e+00  2.1412686082444023e-03 -5.3078436501934794e-04 0.0000000000000000e+00  1.0366913579412445e-03 1.7798992262681164e-03 0.0000000000000000e+00  -7.0598735542685412e-04 4.6989327886774886e-04 0.0000000000000000e+00  2.0808457712499528e-03 8.4086110438534112e-05 0.0000000000000000e+00  9.1045728938494422e-04 -2.6254001847380603e-05 0.0000000000000000e+00  5.3643030393081298e-04 4.6745836508898663e-04 0.0000000000000000e+00  1.1062209741733685e-03 4.0615442907556565e-04 0.0000000000000000e+00  3.2677915987291981e-03 -7.7056295843822356e-04 0.0000000000000000e+00  -5.7427308202693899e-04 5.7091215937460143e-04 0.0000000000000000e+00  3.0948188960714810e-03 1.5889326629096997e-04 0.0000000000000000e+00  4.1110018294536702e-03 -7.9146623431280863e-04 0.0000000000000000e+00  2.5999239182753595e-03 -1.0175803229466841e-03 0.0000000000000000e+00  9.1333253876251120e-03 -1.1088718187246870e-03 0.0000000000000000e+00  1.0751223435012973e-03 -6.7942997445204038e-04 0.0000000000000000e+00  5.3841668821277694e-03 -7.5701212021298339e-04 0.0000000000000000e+00  2.5239360155243111e-03 -2.0664032638526941e-04 0.0000000000000000e+00  4.3859998200434930e-03 -5.5648817919103620e-04 0.0000000000000000e+00  1.8253113025896036e-03 -2.4728866968196789e-04 0.0000000000000000e+00  2.6078637752428120e-04 1.1075153840831892e-03 0.0000000000000000e+00  9.9407019065435526e-04 -1.0483046859779781e-04 0.0000000000000000e+00  2.3537066916468120e-03 -2.7308610500374265e-04 0.0000000000000000e+00  1.1473664633472411e-03 -5.4128796352445347e-04 0.0000000000000000e+00  1.4424278955408999e-03 9.0160219840781084e-04 0.0000000000000000e+00  5.1426843960293766e-03 -2.3790454868396200e-03 0.0000000000000000e+00  1.8951169174743689e-03 -1.8620998128140692e-03 0.0000000000000000e+00  2.3142076239912094e-03 -2.3705009297156918e-03 0.0000000000000000e+00  -3.0311760352384810e-03 5.7513527538894287e-03 0.0000000000000000e+00  1.9751947806490740e-03 4.6438182832296169e-06 0.0000000000000000e+00  1.5705754014123182e-03 -1.4887786593528100e-04 0.0000000000000000e+00  -1.0679163424074660e-03 3.3878490338350616e-03 0.0000000000000000e+00  2.8952183652053484e-03 7.7305900419211989e-05 0.0000000000000000e+00  1.7611040403068721e-03 2.0270969942792527e-04 0.0000000000000000e+00  5.8717217467949305e-03 -4.9249732099518816e-04 0.0000000000000000e+00  2.4079667260000475e-03 -2.9203343760065129e-03 0.0000000000000000e+00  2.2732194717012336e-03 -1.1113690775291668e-03 0.0000000000000000e+00  1.8523645131335420e-04 -3.2230225260867617e-04 0.0000000000000000e+00  1.6239381198946726e-03 -4.4200502419041257e-05 0.0000000000000000e+00  4.2520442220036446e-03 5.5363992407753181e-04 0.0000000000000000e+00  1.9799770620689498e-03 -9.4874286658531791e-05 0.0000000000000000e+00  2.7177368068847423e-04 -4.4109137141796985e-04 0.0000000000000000e+00  1.8759994163231855e-03 -7.0164646512085188e-04 0.0000000000000000e+00  -3.2109483054459172e-05 1.5613493186696602e-04 0.0000000000000000e+00  1.8758421713462065e-03 8.8338396445394396e-05 0.0000000000000000e+00  1.8429560680231706e-03 7.4252361829393399e-06 0.0000000000000000e+00  4.6013203499900100e-03 -2.0528207226344583e-03 0.0000000000000000e+00  -3.8392588145384115e-04 -2.1323386504994331e-03 0.0000000000000000e+00  -1.2443392270947802e-03 -1.2437109495642496e-06 0.0000000000000000e+00  1.8896593199508188e-03 -1.1442996665021160e-03 0.0000000000000000e+00  1.1422341165739907e-03 8.1391416311299880e-04 0.0000000000000000e+00  2.5792079053541211e-03 -3.3806207473496093e-04 0.0000000000000000e+00  2.3731039604640695e-04 -3.1388540239485200e-04 0.0000000000000000e+00  8.9609530798590584e-04 1.0454639764113319e-04 0.0000000000000000e+00  2.0950361529620959e-03 -3.2598872295699509e-04 0.0000000000000000e+00  2.2532312115773785e-03 -1.0742382348040715e-03 0.0000000000000000e+00  3.6809986989338409e-03 -9.6704454533969172e-04 0.0000000000000000e+00  2.2575881090549713e-03 -1.7795097831870910e-04 0.0000000000000000e+00  1.9854726717944025e-03 -7.7035239912972338e-05 0.0000000000000000e+00  3.3992191718022671e-03 -5.3122353304086268e-05 0.0000000000000000e+00  1.5903501098373202e-03 -2.1236217379510955e-05 0.0000000000000000e+00  1.9690268379862455e-03 7.0923616576914041e-04 0.0000000000000000e+00  2.3318322855617264e-03 -7.2747463979916588e-04 0.0000000000000000e+00  -6.8323958142706555e-04 1.6477824010546786e-03 0.0000000000000000e+00  -2.2047050771004965e-03 6.2538622663698665e-04 0.0000000000000000e+00  1.1503755161576474e-03 1.0517937276343439e-03 0.0000000000000000e+00  -1.3399007756328999e-03 -4.5703358226717867e-04 0.0000000000000000e+00  1.4084093235152335e-03 -3.8396211028278308e-04 0.0000000000000000e+00  2.6575872543856253e-03 -5.2128590753971354e-04 0.0000000000000000e+00  2.2635668039095746e-03 -2.4408661502443830e-04 0.0000000000000000e+00  -8.2729976550927346e-04 -7.7136026825307060e-04 0.0000000000000000e+00  -3.8143073553072420e-04 1.1356234336277681e-03 0.0000000000000000e+00  -4.7440086883890776e-04 1.4891669212997788e-03 0.0000000000000000e+00  1.9136876649581314e-03 -5.5561993598157874e-04 0.0000000000000000e+00  -3.0477885193919501e-03 7.3288728508670944e-04 0.0000000000000000e+00  -3.2886183994119025e-03 2.0132101136152224e-03 0.0000000000000000e+00  -5.4278759884694282e-04 1.8399961105518441e-03 0.0000000000000000e+00  2.4660702940053985e-03 -3.8902683292258632e-04 0.0000000000000000e+00  1.8613071879606429e-03 1.8164246992763515e-03 0.0000000000000000e+00  1.0782253898015321e-03 1.3018069987479537e-03 0.0000000000000000e+00  4.3860727814604176e-03 -1.6067726304037776e-03 0.0000000000000000e+00  1.6852049624325148e-03 -5.6251901993779364e-05 0.0000000000000000e+00  1.6070437339548512e-03 -1.6118724339768172e-03 0.0000000000000000e+00  -2.4523728886282990e-03 8.8545420756695097e-04 0.0000000000000000e+00  -1.5081877988302116e-03 1.2345042783810432e-03 0.0000000000000000e+00  -3.1354388670898864e-03 1.5271405334758019e-03 0.0000000000000000e+00  -1.4756940659079238e-04 3.3633938337632348e-04 0.0000000000000000e+00  2.1098459084009499e-03 6.9776390900790628e-04 0.0000000000000000e+00  6.2081391188410209e-04 6.9493003116545473e-04 0.0000000000000000e+00  5.6952395579499800e-04 2.7480007309157778e-04 0.0000000000000000e+00  1.2451470083540866e-03 2.5139324923146688e-04 0.0000000000000000e+00  1.5369441661842651e-04 -1.0692645571677949e-03 0.0000000000000000e+00  -4.5454361791810521e-04 -2.6685158417825023e-04 0.0000000000000000e+00  1.8655873977691658e-03 2.3762218896684725e-03 0.0000000000000000e+00  2.3612872777515051e-03 6.1743063164085461e-05 0.0000000000000000e+00  1.2148003353969288e-03 -5.5850055914731175e-04 0.0000000000000000e+00  4.3989885814914417e-04 9.7868148434562428e-04 0.0000000000000000e+00  3.8863468080067329e-03 -1.2479127080181212e-03 0.0000000000000000e+00  -5.0439312121059994e-04 -9.7218344989818115e-04 0.0000000000000000e+00  -1.1298483622850905e-03 -8.1258542217793541e-04 0.0000000000000000