<?xml version="1.0"?>
<VTKFile type="UnstructuredGrid"  version="0.1"  >
<UnstructuredGrid>
<Piece  NumberOfPoints="1385" NumberOfCells="2640">
<Points>
<DataArray  type="Float64"  NumberOfComponents="3"  format="ascii">0 0 0  1 0 0  1 1 0  0 1 0  0.5 0 0  1 0.5 0  0.5 1 0  0 0.5 0  0.5 0.5 0  0 0.25 0  0.25 0 0  0.25 1 0  0 0.75 0  1 0.25 0  0.75 0 0  1 0.75 0  0.75 1 0  0.7083333333333333 0.2916666666666667 0  0.2916666666666666 0.7083333333333334 0  0.375 0.25 0  0.75 0.625 0  0.2569444444444444 0.4652777777777778 0  0.5366379310344828 0.7535919540229885 0  0.1875 0.1875 0  0.8125 0.8125 0  0.869047619047619 0.375 0  0.1450441919191919 0.6052714646464646 0  0.375 0.8690476190476191 0  0.5526960784313725 0.1825980392156862 0  0.8385416666666666 0.1614583333333334 0  0.1614583333333333 0.8385416666666667 0  0.6736111111111112 0.4652777777777778 0  0.1367521367521368 0.3477564102564102 0  0.6570970491253563 0.8648656830417855 0  0.5102479397556124 0.3386260301221938 0  0.3654513888888889 0.5737847222222222 0  0.6929750044954185 0.1362784921584263 0  0.388576102743835 0.411911725237599 0  0.6091269841269842 0.5942460317460317 0  0.875 0.6875 0  0.427278890279516 0.119889445139758 0  0.8544456845238095 0.5213913690476191 0  0.125 0 0  0 0.125 0  1 0.875 0  0.875 1 0  0.1280008648150532 0.4769292340226777 0  0.2695382451711197 0.3321750950221553 0  0.7031567235715964 0.7447810921428012 0  0.625 0 0  0.375 0 0  0.125 1 0  0.875 0 0  0 0.375 0  0 0.625 0  1 0.375 0  0.375 1 0  1 0.125 0  0 0.875 0  0.625 1 0  1 0.625 0  0.2979288363930608 0.1201429454643536 0  0.410919540229885 0.7484605911330049 0  0.5325041980395562 0.878905151526474 0  0.4831670727569156 0.6331060043826487 0  0.1735997378973042 0.7204747378973043 0  0.2534919507575758 0.5772372159090909 0  0.2633928571428572 0.8876488095238095 0  0.8199404761904761 0.2730654761904762 0  0.75830270586982 0.3919383189517417 0  0.5750282248382511 0.4237522353023667 0  0.6008360210023379 0.2794828358598495 0  0.08163442644334186 0.6821295860397322 0  0.08333333333333333 0.1875 0  0.2028380815996574 0.08844602719988583 0  0.2766521142611967 0.2325436572164097 0  0.90625 0.78125 0  0.890625 0.890625 0  0.7545696325008384 0.8973565441669461 0  0.5625 0.08086590340834317 0  0.09077380952380953 0.09077380952380952 0  0.4610923478694773 0.209034015149656 0  0.7542527598351648 0.5248380520595106 0  0.6459235536037465 0.3619913988405765 0  0.7560381768882634 0.20506142233852 0  0.07073252688172042 0.8125 0  0.0924753097241701 0.9078102849914793 0  0.9292674731182795 0.1875 0  0.9075246902758297 0.09218971500852073 0  0.8125 0.07073252688172045 0  0.2400955776842301 0.7869705776842302 0  0.9121050213379069 0.2781978201831695 0  0.7916878157143976 0.7239689078571988 0  0.9345238095238094 0.4375 0  0.4375 0.9345238095238095 0  0.3725616989755203 0.6651895248862173 0  0.06536271996350887 0.5625 0  0.9348362560379583 0.5625 0  0.456646798987055 0.8277247094351965 0  0.1875 0.9355758238725954 0  0.6169761231634859 0.6939779188977889 0  0.6226854751147515 0.7827911461419014 0  0.3305695598137626 0.7901697871282585 0  0.5865305325818898 0.5101085479043448 0  0.6622701297028378 0.2177663989757395 0  0.1354166666666667 0.2591702279202279 0  0 0.3125 0  0.2094429575680048 0.3936361846162499 0  0.836666296419157 0.607917407161686 0  0.6875 1 0  0.214261555450504 0.6492551722020035 0  0 0.4375 0  0.07731537126068377 0.40625 0  0.3427725432967068 0.4879566233699599 0  0.3550792513951871 0.3331953632609953 0  0.4462473953896857 0.2887834789342508 0  0.4747801464819794 0.417386052030127 0  0.8229836475148948 0.4443292349237342 0  0.7322605135514757 0.8199240278289671 0  0.6756431877205955 0.5468989748126787 0  0.1968419507215863 0.5194573482612496 0  0.3285590277777778 0.9345238095238095 0  0.8125 1 0  0.4198917601920009 0.5134893045331258 0  0.5232405503206691 0.2595791787880157 0  1 0.9375 0  0.1987510870015086 0.3025185951894431 0  0.5625 1 0  0.6005390654136388 0.9228110509230952 0  0.6411254848194414 0.07704872765442942 0  0.3357233162523242 0.1855113224530532 0  0.6730653396610877 0.6393887462324165 0  0.310966987234063 0.6240019765311626 0  0.7368737836204349 0.07457755202327881 0  0.6192316414418171 0.1485238406378594 0  0.5432429670607106 0.678552703844006 0  0.4754371679695679 0.7103946803120881 0  0.07501324890749672 0.3043839897335739 0  0.5358146975860403 0.5688321463205916 0  0.3115271739500156 0.3982137365971444 0  0.3625191397122174 0.0767854603650549 0  0.5024029442563831 0.1264128223758444 0  0.4375 0 0  0.4699946908887376 0.06379961173775725 0  0.9375 0.71875 0  0.9272105898044465 0.635671179608893 0  0.9375 1 0  0.6690971819568612 0.9331530898202766 0  0.1073454944778885 0.7499206387638554 0  0.8699082999280406 0.2232403652524313 0  0.5773118091863964 0.3548027349159383 0  0.1354166666666667 0.1428571428571428 0  0.3125 0 0  0.8241684193077341 0.9257452995055244 0  0.4352314948354036 0.3586940847489378 0  0.4351301473778832 0.5819726043539077 0  0.8073232928518163 0.3419398170341962 0  0.7775949246947366 0.1298519409204575 0  0.6875 0 0  0.7413513991851041 0.457933324954483 0  0.939453125 0.841796875 0  0.5630355154606987 0.8171875156478349 0  0.9345238095238095 0.3461466592368577 0  0.9375 0 0  1 0.0625 0  0.0625 1 0  0 0.9375 0  0.06552178593177167 0.4969053669623468 0  0.1424866619031703 0.4130277709291224 0  0.1275287182444726 0.5422946908002588 0  0.2637686595586339 0.06413888464529549 0  0.2524263535491086 0.1697437503243817 0  0.7367218397988525 0.6888573970660841 0  0.0625 0 0  0 0.0625 0  0.8463594539285995 0.7578283617857982 0  0.3128751192101563 0.2851997374369947 0  0.4015281788351144 0.1806421385113692 0  0.1910251795116588 0.4553332197174453 0  0.287797471442006 0.5222621440543902 0  0.3962628745986055 0.8097380085535307 0  0.3505895299554843 0.7304878890838692 0  0.5019151500495276 0.9356042615328103 0  0.9374389419410134 0.4999931039076005 0  0.3125 1 0  0.1875 1 0  1 0.5625 0  0.4375 1 0  1 0.3125 0  1 0.4375 0  0.8125 0 0  1 0.1875 0  0.5625 0 0  0.1875 0 0  0 0.1875 0  0 0.5625 0  0 0.6875 0  0 0.8125 0  1 0.6875 0  1 0.8125 0  0.8021696218581627 0.6612893947866073 0  0.06154922295426143 0.6239401126946708 0  0.9359375 0.9359375 0  0.4666158024849896 0.7691515918155014 0  0.2318201265217025 0.7064974250277525 0  0.1565954253579966 0.6635489312486841 0  0.1598132503680848 0.7787147500325552 0  0.3146529991605639 0.8510876378205265 0  0.1461873209418733 0.05982804528877814 0  0.06109554988524315 0.2446551776247686 0  0.8054950308560754 0.5564226538848541 0  0.470541749491976 0.8853316336952531 0  0.6948472567465137 0.4042308563372457 0  0.8802828472348889 0.4658893256343853 0  0.6788075634946739 0.7974194205806069 0  0.2155048659603867 0.2428201584940968 0  0.8131223143423806 0.2132171049028394 0  0.4330798005432235 0.6671274900735726 0  0.6015279126162613 0.2187368078743274 0  0.8061636571464289 0.8703766630361714 0  0.7008230445061776 0.3478568388444072 0  0.8638466246958771 0.3147095987735538 0  0.204801534004265 0.8789209409594009 0  0.2449006736431132 0.9424182882803838 0  0.7611268409371427 0.2643056884799992 0  0.7552800864046191 0.7678006649959446 0  0.5983639638906616 0.864113435029236 0  0.1956559506814437 0.577281203577426 0  0.3527670268164207 0.1320469097565204 0  0.7530364577483248 0.3262386077083089 0  0.4535919187979363 0.4690107087451527 0  0.8824869791666666 0.8336588541666666 0  0.8814453125 0.9451171875 0  0.5582987942628019 0.622421666543858 0  0.6817532446064828 0.6939001801354731 0  0.3830295138888889 0.9450968952922078 0  0.4140603937012541 0.05211333372716105 0  0.5535864501303013 0.3060591985391672 0  0.6560130086346878 0.2729726562211558 0  0.890203140221684 0.5948314305427268 0  0.7043857725999024 0.593980890020804 0  0.5105843922695152 0.8016828014338627 0  0.05365910753708378 0.7315110031682004 0  0.616904573672261 0.4621186633436136 0  0.5338511646455415 0.387875898899613 0  0.5231769258947843 0.4477682463140762 0  0.650302973237622 0.7370722302085519 0  0.3927483139621257 0.4662414504529014 0  0.8034595960585199 0.4972538342758211 0  0.7738337841682438 0.9496376207663251 0  0.7193737507158268 0.954685447650112 0  0.482525916480686 0.5528257169991676 0  0.2533501157346781 0.2809495420003238 0  0.3118487924482243 0.5702930126570319 0  0.6257598847669529 0.4104163315430518 0  0.1354166666666667 0.1955605158730158 0  0.04166666666666666 0.15625 0  0.3956448985530264 0.6174149462065157 0  0.8102897701818546 0.3938784238208349 0  0.2641154190013625 0.8344469561943118 0  0.642852220770013 0.5068794586563659 0  0.05271458179508221 0.355846947336007 0  0.7021551360070266 0.8921457280225779 0  0.5692125776683765 0.1328512638850284 0  0.5206162811937602 0.04865158770992991 0  0.6001838442201555 0.04540556991297563 0  0.2597716608242787 0.4118346398477178 0  0.4040584599473195 0.3179589136784675 0  0.1480337679295207 0.8941560631483065 0  0.1344356707112281 0.9466251177415842 0  0.7114696411829317 0.4983917389078826 0  0.7585704698442475 0.5751926345944629 0  0.2189131956390871 0.04022068508159698 0  0.2476935455192043 0.1123642267635843 0  0.185995005654517 0.1365524537205238 0  0.6223414373308711 0.643380839165121 0  0.5732602596637543 0.7190051747306219 0  0.268358222364537 0.6586246524467934 0  0.3265879848129173 0.2369791782191225 0  0.1267095595787346 0.7034787238999181 0  0.1115202922226038 0.6421997933884982 0  0.3128688392940203 0.07260997451790079 0  0.550724900485678 0.9253360991633187 0  0.7142608810459105 0.2384904702214873 0  0.7045869185243887 0.1871826897887429 0  0.890625 0.734375 0  0.953125 0.765625 0  0.2111812642821677 0.8286209446459138 0  0.9590293078204457 0.09375 0  0.953431269039847 0.1435719386408004 0  0.04097069217955424 0.90625 0  0.04656873096015299 0.8564280613591996 0  0.1078743037981226 0.8541621766048062 0  0.8921256962018773 0.1458378233951939 0  0.8521576979194619 0.1084496634207678 0  0.8655663982740958 0.05464346096571447 0  0.04005659640905543 0.09375 0  0.1001448316533417 0.04246776244228261 
[...]
<PointData  Vectors="f_8699-1"> 
<DataArray  type="Float64"  Name="f_8699-1"  NumberOfComponents="3" format="ascii">5.0179788135762153e-03 8.4133749352552668e-03 0.0000000000000000e+00  -1.0298024744746896e-03 1.6275959881177778e-03 0.0000000000000000e+00  7.9286580386898832e-05 2.1902198894958162e-03 0.0000000000000000e+00  -2.1198671075005988e-04 -3.8182209647780411e-03 0.0000000000000000e+00  -2.5258529846001465e-03 3.9619028996073329e-03 0.0000000000000000e+00  6.6087300994988106e-04 2.8217991298364129e-04 0.0000000000000000e+00  -7.3348649718855881e-05 1.3916196482251019e-04 0.0000000000000000e+00  -1.0811397998672372e-03 2.1230475014842360e-03 0.0000000000000000e+00  1.1831730480076877e-04 -1.5559586633195617e-04 0.0000000000000000e+00  -1.2926088380980077e-03 4.8445485760076259e-03 0.0000000000000000e+00  -3.6716879391872157e-03 5.5703435050902146e-03 0.0000000000000000e+00  8.7316497164327956e-04 -1.4671711297190534e-03 0.0000000000000000e+00  8.8482279892446213e-05 4.6539257450035524e-04 0.0000000000000000e+00  3.4993888459559854e-04 -9.2014403483974515e-04 0.0000000000000000e+00  -8.8344973184273845e-04 2.9385303772343678e-03 0.0000000000000000e+00  -9.5604839145370894e-05 7.7300974920061264e-04 0.0000000000000000e+00  -1.4088553184608780e-04 9.8421283704904481e-04 0.0000000000000000e+00  -5.4236251335550818e-04 1.5658642497062268e-03 0.0000000000000000e+00  -1.2320973025689989e-03 2.2550743346207670e-03 0.0000000000000000e+00  1.9061780013075985e-03 -1.4718017831156667e-03 0.0000000000000000e+00  1.9712278620540524e-04 -4.1116438657321690e-04 0.0000000000000000e+00  2.8737043699043801e-03 -6.6459389155689406e-03 0.0000000000000000e+00  -4.1662341513565060e-04 4.6616554747057955e-04 0.0000000000000000e+00  2.1784288310725043e-04 -3.3513308945156764e-03 0.0000000000000000e+00  -1.9371802770673565e-04 1.0011521353192767e-04 0.0000000000000000e+00  -1.9532886625938040e-04 4.1708572613322460e-04 0.0000000000000000e+00  2.7537415388883456e-04 -3.3446020642988275e-03 0.0000000000000000e+00  -1.2075613202568343e-03 7.7179948574060994e-04 0.0000000000000000e+00  -3.1650885464834050e-04 9.1367040095548550e-04 0.0000000000000000e+00  6.0353379517259244e-04 2.3424670273971097e-03 0.0000000000000000e+00  -3.7558928844831098e-04 -7.5663486700432311e-04 0.0000000000000000e+00  1.9952809075409031e-04 2.4136921777971965e-03 0.0000000000000000e+00  5.2991350823645002e-04 1.4839505851784998e-03 0.0000000000000000e+00  -5.3566842871264871e-05 5.5526959046861080e-04 0.0000000000000000e+00  1.8153746773379213e-04 -1.6216094635788973e-03 0.0000000000000000e+00  -1.1350135724135604e-03 2.8044666619228163e-03 0.0000000000000000e+00  -1.8002048860113039e-03 -3.5400674837720706e-03 0.0000000000000000e+00  -1.2269479227195064e-03 8.4783369574021239e-04 0.0000000000000000e+00  7.5161770800846175e-04 2.1571124167994128e-03 0.0000000000000000e+00  -9.7719969745674567e-05 2.6408457993450378e-04 0.0000000000000000e+00  -1.0664077511634029e-03 4.8097840177215526e-03 0.0000000000000000e+00  2.4175459281545718e-04 9.1729431258644677e-04 0.0000000000000000e+00  -1.7605361920564073e-03 4.5138682148848303e-03 0.0000000000000000e+00  1.4965231010330058e-03 -1.8835694439365332e-03 0.0000000000000000e+00  5.4718903145884942e-05 9.3108329966428587e-04 0.0000000000000000e+00  -6.1687507855942916e-04 1.6503468330158811e-03 0.0000000000000000e+00  -7.2319887001806235e-04 -1.1108600554231567e-04 0.0000000000000000e+00  2.9129949301173797e-03 4.8784057192096335e-04 0.0000000000000000e+00  3.0718290166900978e-04 8.6732631688873798e-05 0.0000000000000000e+00  -9.5139219566357227e-05 5.9970627156962688e-03 0.0000000000000000e+00  -1.0641413516369199e-03 2.0356844645554985e-03 0.0000000000000000e+00  5.8711431971487059e-04 -1.2582822340080244e-03 0.0000000000000000e+00  -5.6455181369352060e-04 2.3218324429096398e-03 0.0000000000000000e+00  4.8648312490057492e-04 3.7064191365086914e-03 0.0000000000000000e+00  -2.4181695241519809e-04 4.9933759716890413e-03 0.0000000000000000e+00  8.3497022901633257e-05 -3.5883989710107085e-04 0.0000000000000000e+00  3.9427163849362626e-04 -1.8411676457212815e-03 0.0000000000000000e+00  8.3305422086241056e-04 -7.6311574942868857e-04 0.0000000000000000e+00  -7.2807264995315658e-04 1.5870069469918501e-03 0.0000000000000000e+00  6.9805310034485701e-05 5.9967697152202087e-04 0.0000000000000000e+00  -1.1465294025388425e-04 3.3807270240889637e-04 0.0000000000000000e+00  -3.0440831543423921e-03 4.3594464968940141e-03 0.0000000000000000e+00  1.1863161406774419e-03 -1.6207546452827492e-03 0.0000000000000000e+00  3.5239013270917390e-04 1.6407044876185506e-04 0.0000000000000000e+00  5.0626129858552115e-04 -2.5092182823533639e-03 0.0000000000000000e+00  -9.4688242692903880e-04 2.2674705833337504e-03 0.0000000000000000e+00  1.1658936987031477e-04 1.4189553197271481e-03 0.0000000000000000e+00  1.6618551187407510e-03 -2.4626508419138601e-03 0.0000000000000000e+00  1.5074031676727250e-04 -3.4988855002185131e-03 0.0000000000000000e+00  -1.9723026174759224e-03 5.6669079877228975e-04 0.0000000000000000e+00  -1.4421100426467686e-03 9.9925579339451014e-04 0.0000000000000000e+00  -8.9997677661513193e-04 1.6368684185248390e-03 0.0000000000000000e+00  -1.7398282058306009e-04 -2.9155265217590261e-03 0.0000000000000000e+00  3.6328831282913474e-04 -1.3393374384649812e-03 0.0000000000000000e+00  -6.0796273846092422e-04 -8.2604994137653494e-03 0.0000000000000000e+00  -1.6980669460257259e-03 3.8220618746598960e-03 0.0000000000000000e+00  -1.1844863733522535e-04 -4.4406157200729840e-04 0.0000000000000000e+00  -6.0943456901407377e-05 1.4256374206868027e-03 0.0000000000000000e+00  -1.0248305771150474e-04 -2.5237503968897584e-04 0.0000000000000000e+00  7.5871507786219453e-04 -2.8675441669871508e-03 0.0000000000000000e+00  -1.0279898339613644e-03 6.6584350979814375e-04 0.0000000000000000e+00  8.5216871586925704e-04 -1.7859911313897526e-03 0.0000000000000000e+00  -2.4376268657690285e-04 1.4870924870412870e-03 0.0000000000000000e+00  4.7744793553346437e-04 1.0240481535227935e-03 0.0000000000000000e+00  -6.4812897743535573e-05 7.1288453538404135e-04 0.0000000000000000e+00  -1.3448852403317919e-03 -9.2586192479864374e-05 0.0000000000000000e+00  1.0996296675518519e-03 -2.3154095962156073e-03 0.0000000000000000e+00  -2.7663414261996737e-04 1.4278379294594616e-03 0.0000000000000000e+00  1.1427282061161582e-03 -1.3132072676112277e-03 0.0000000000000000e+00  -1.4490601966666810e-03 4.8332778931527588e-04 0.0000000000000000e+00  9.8244935190163547e-04 -2.6153583314409692e-03 0.0000000000000000e+00  1.3996029961181480e-03 6.4150617057278508e-04 0.0000000000000000e+00  -1.9818212082158495e-06 2.5204776040994512e-04 0.0000000000000000e+00  -4.6579069181955287e-04 2.8178512645698871e-04 0.0000000000000000e+00  -4.8891583367064004e-04 1.9555322150239659e-04 0.0000000000000000e+00  3.1503495063715304e-04 -1.8553845627058887e-03 0.0000000000000000e+00  -1.1372645762063342e-05 -5.0567562730307169e-03 0.0000000000000000e+00  -3.9824924919870110e-04 1.0825460027419290e-04 0.0000000000000000e+00  -6.9657482646881129e-04 -1.5144473923960717e-04 0.0000000000000000e+00  -2.8982880830962193e-04 -2.7825535118734850e-04 0.0000000000000000e+00  1.0479981143482581e-04 1.0401514077432342e-03 0.0000000000000000e+00  -1.5003369819819830e-04 -1.1017434677757670e-03 0.0000000000000000e+00  -4.2282484506234413e-04 1.1656245304481905e-03 0.0000000000000000e+00  -4.6382578904982077e-04 1.7969428297451994e-03 0.0000000000000000e+00  1.3074731696831236e-03 1.2155607902994230e-04 0.0000000000000000e+00  4.2990987800128411e-04 2.4718570563922815e-03 0.0000000000000000e+00  -1.2525111602831049e-03 2.0042983213784627e-03 0.0000000000000000e+00  -1.2424660561248051e-03 3.2516747820659675e-03 0.0000000000000000e+00  -2.0380843579233395e-04 7.4678785041655050e-04 0.0000000000000000e+00  -2.1945200213393552e-04 5.1824667315151661e-04 0.0000000000000000e+00  1.1031468043579929e-03 -5.7451492183748952e-04 0.0000000000000000e+00  3.5766113739213105e-03 -9.7861496799224630e-04 0.0000000000000000e+00  -2.0528925225279512e-03 4.0407050550838979e-03 0.0000000000000000e+00  -5.2010324028948618e-04 -4.4467556140607304e-03 0.0000000000000000e+00  -1.9269852819214883e-03 -1.0080133911665708e-03 0.0000000000000000e+00  -5.8970445849683612e-04 -9.6244921996820228e-04 0.0000000000000000e+00  7.5595868696913472e-04 5.0182123088200253e-03 0.0000000000000000e+00  -2.0201695886895097e-04 -1.2633677490123828e-03 0.0000000000000000e+00  -2.0788050639427972e-05 3.1065979919179539e-04 0.0000000000000000e+00  -8.9682926148481647e-04 1.4123342137363857e-03 0.0000000000000000e+00  -1.9137404977339822e-03 -1.3884081820630912e-04 0.0000000000000000e+00  3.4524386276370072e-04 -9.0459253952879422e-04 0.0000000000000000e+00  -3.2823105075821275e-04 2.1794926563906340e-03 0.0000000000000000e+00  -3.7119466839789257e-04 -4.3883288028926954e-04 0.0000000000000000e+00  2.3974927739818632e-03 -2.8886924444716639e-03 0.0000000000000000e+00  8.3422092376813544e-05 1.6166137356496226e-03 0.0000000000000000e+00  -1.1341492989550722e-03 2.9425209391986369e-04 0.0000000000000000e+00  2.7154838954588388e-05 1.8397271230817020e-04 0.0000000000000000e+00  4.2621696874917741e-06 2.2299871136353288e-04 0.0000000000000000e+00  -1.4814338460870551e-03 1.4842680393828745e-03 0.0000000000000000e+00  1.7130545723219761e-03 -1.6988684692286606e-03 0.0000000000000000e+00  -3.5974987911504262e-05 -4.4030734337913326e-04 0.0000000000000000e+00  4.7601852432459419e-04 -1.7683372153514702e-03 0.0000000000000000e+00  -6.0080891802884195e-04 3.7567124269615110e-03 0.0000000000000000e+00  -4.2973850143240844e-03 1.8652806116623839e-03 0.0000000000000000e+00  -6.9701859156263589e-04 1.5038884462844470e-03 0.0000000000000000e+00  -1.4956805319439332e-04 3.2286702435522772e-03 0.0000000000000000e+00  -6.0916984738350116e-04 3.3770305147897382e-03 0.0000000000000000e+00  -3.4625655974627464e-04 -9.7831586612307344e-04 0.0000000000000000e+00  -1.4502163898259964e-04 2.5744342699349828e-03 0.0000000000000000e+00  3.2220981812183082e-03 4.2573548098962162e-04 0.0000000000000000e+00  -7.8507318720642003e-04 -9.5425777879723582e-04 0.0000000000000000e+00  -1.7160684685042112e-03 5.9031537739760850e-03 0.0000000000000000e+00  5.8090520718774305e-03 -3.3192888389715481e-03 0.0000000000000000e+00  -7.2228661914221551e-06 4.9368857190105857e-04 0.0000000000000000e+00  4.2000203023747856e-06 2.5014776025063359e-04 0.0000000000000000e+00  -3.8621192799446975e-04 3.0868235797425611e-03 0.0000000000000000e+00  4.2304055374039508e-05 3.8087896843372031e-05 0.0000000000000000e+00  2.5088034583072420e-03 -3.3251644970537868e-03 0.0000000000000000e+00  2.2870675513386131e-03 -3.1599312555692736e-03 0.0000000000000000e+00  -9.4771959471441104e-05 3.4246455469955053e-03 0.0000000000000000e+00  -2.1637578390509460e-03 4.7208265712236977e-03 0.0000000000000000e+00  -1.2929363167244383e-03 6.6821724853330534e-03 0.0000000000000000e+00  2.5790853522786506e-04 9.4822524251437211e-04 0.0000000000000000e+00  -5.4670226585244296e-03 1.8943874254722043e-04 0.0000000000000000e+00  -3.9006694003744443e-04 3.0615680586820228e-04 0.0000000000000000e+00  -2.4803852356462462e-05 1.4086559370224704e-03 0.0000000000000000e+00  -9.4848037503641027e-04 1.1600008598962991e-03 0.0000000000000000e+00  9.9460428339819646e-04 5.4471980052027474e-03 0.0000000000000000e+00  -3.8313810803560796e-04 -8.7868530631969263e-04 0.0000000000000000e+00  3.6866723085379960e-04 -2.9205149770278544e-04 0.0000000000000000e+00  1.9267877970384080e-04 -2.8624441420203054e-04 0.0000000000000000e+00  5.5520438494865456e-04 -1.0322953678650378e-03 0.0000000000000000e+00  -8.8925862525969296e-04 1.8501201187159162e-03 0.0000000000000000e+00  1.0881361922294506e-03 -1.8777451861253581e-03 0.0000000000000000e+00  1.0720201592775377e-03 -1.5815189341608557e-03 0.0000000000000000e+00  1.3130678236588581e-03 -7.7592418666657466e-04 0.0000000000000000e+00  7.2061596224285620e-03 1.5162353146895759e-03 0.0000000000000000e+00  4.4634263963894910e-03 -3.9729897970613402e-03 0.0000000000000000e+00  2.1162588965428540e-03 -5.5847827694123523e-03 0.0000000000000000e+00  -1.6873336521415682e-03 3.1527193586864347e-03 0.0000000000000000e+00  -1.1922468485195577e-04 5.5571271357594369e-03 0.0000000000000000e+00  3.0027263031212164e-04 9.9603333052011530e-04 0.0000000000000000e+00  -1.5660168123902401e-03 4.3421299913499519e-03 0.0000000000000000e+00  2.6076167685889105e-03 -9.1912100939237616e-04 0.0000000000000000e+00  -8.2496935361742966e-05 3.3621185917000798e-04 0.0000000000000000e+00  1.1120522068870280e-03 -1.0651400887481163e-03 0.0000000000000000e+00  7.0584247907917578e-04 1.6757191065931484e-03 0.0000000000000000e+00  2.4112129668985879e-03 -2.5136380828280278e-03 0.0000000000000000e+00  1.3385059858042200e-03 -3.1670871929902404e-03 0.0000000000000000e+00  8.2551955985167189e-04 3.6374142310393177e-04 0.0000000000000000e+00  -6.6627389440513480e-04 -4.6309646540326072e-04 0.0000000000000000e+00  6.2578694702151310e-04 -2.1275286278732441e-04 0.0000000000000000e+00  -1.0680137019127429e-04 7.0412307337667363e-04 0.0000000000000000e+00  8.5010699241864574e-04 -1.0142688825782022e-03 0.0000000000000000e+00  3.8213939472066141e-04 -1.2369045213075790e-03 0.0000000000000000e+00  -2.7372290278511739e-05 1.7226457806488946e-04 0.0000000000000000e+00  1.3335155134416588e-04 -1.0089567330394201e-03 0.0000000000000000e+00  4.4669285305726426e-04 -5.8215960271740990e-04 0.0000000000000000e+00  5.7997415428280184e-04 -4.6918968352721612e-04 0.0000000000000000e+00  -5.3429744164610314e-04 3.5866308267576592e-03 0.0000000000000000e+00  8.2652982966516144e-04 -1.1279461629559826e-03 0.0000000000000000e+00  -1.3272367261980571e-03 5.1866187463332943e-03 0.0000000000000000e+00  6.6856907573798136e-04 7.5529545946947801e-03 0.0000000000000000e+00  -3.3158334465397932e-03 1.8697864197451620e-03 0.0000000000000000e+00  -3.5709703196683897e-04 3.3446977377907172e-03 0.0000000000000000e+00  3.1402261082676070e-03 -1.6056602498792972e-03 0.0000000000000000e+00  -3.3760645202991300e-03 4.8126865611007093e-03 0.0000000000000000e+00  -1.7344791013312852e-04 4.8794889206091850e-04 0.0000000000000000e+00  1.5163606052749550e-04 1.0903427271274793e-03 0.0000000000000000e+00  -7.5756783803223573e-04 6.0338025075356867e-04 0.0000000000000000e+00  1.3746562315530408e-03 -5.8512572620837561e-03 0.0000000000000000e+00  -1.0323760797147248e-04 -9.4251399314485625e-04 0.0000000000000000e+00  -5.6364227695044180e-05 1.5866625895209698e-03 0.0000000000000000e+00  -1.3013043847041579e-03 7.4971723897006900e-04 0.0000000000000000e+00  1.8350629143337922e-03 -2.3670076716452602e-03 0.0000000000000000e+00  4.5720337211510695e-04 -1.1546019319887840e-04 0.0000000000000000e+00  -9.4244728748855121e-04 1.2714273839973045e-04 0.0000000000000000e+00  -1.2363066772190759e-03 4.0089342676035656e-03 0.0000000000000000e+00  2.8154395349245737e-03 -8.1901684186741724e-04 0.0000000000000000e+00  -2.4888513158949512e-04 5.2557927518085334e-04 0.0000000000000000e+00  -4.8098070329495395e-04 -2.6276688653232964e-04 0.0000000000000000e+00  -5.7703232122091955e-04 3.6075483106696037e-03 0.0000000000000000e+00  2.7838545551705899e-04 1.5478597106818050e-03 0.0000000000000000e+00  3.3673581676203301e-04 3.7727702850024662e-04 0.0000000000000000e+00  -1.6297912868131338e-03 2.7003011756219593e-03 0.0000000000000000e+00  -1.1192829139354335e-03 -1.6070701746732272e-03 0.0000000000000000e+00  -1.2468820326789456e-03 1.6143201656914090e-04 0.0000000000000000e+00  -2.9572222079669429e-04 3.9585857216299682e-03 0.0000000000000000e+00  -2.2742528882852811e-04 4.1032884976901503e-05 0.0000000000000000e+00  6.0367179926030384e-04 3.7148878340830687e-03 0.0000000000000000e+00  -6.8455319921532866e-04 9.4016974450109253e-04 0.0000000000000000e+00  -6.5817594536204732e-04 2.7424321964783054e-03 0.0000000000000000e+00  -1.0854255266332068e-03 3.7552907505897161e-04 0.0000000000000000e+00  4.9819384788716214e-04 -7.0654297286109062e-04 0.0000000000000000e+00  -2.6300636365676790e-05 2.7596377080915321e-04 0.0000000000000000e+00  2.0373877875470533e-04 7.3660410464277418e-05 0.0000000000000000e+00  2.2759923543155006e-04 3.4748709980000469e-04 0.0000000000000000e+00  -1.2035994626272042e-03 2.4340634683567078e-03 0.0000000000000000e+00  5.0657955713913632e-04 -2.7055503976772428e-03 0.0000000000000000e+00  -6.8646398835850724e-04 1.4989016755120488e-03 0.0000000000000000e+00  -9.5503939599863562e-06 4.9133684353360059e-04 0.0000000000000000e+00  -1.2878047884028769e-03 1.9038657826786233e-03 0.0000000000000000e+00  1.4544777113260519e-04 -9.6976694291625782e-04 0.0000000000000000e+00  2.1127762292093364e-04 4.3299773588763069e-04 0.0000000000000000e+00  3.1726972811517093e-04 5.5464191088731970e-04 0.0000000000000000e+00  2.8239643615254112e-03 6.8276165768040133e-03 0.0000000000000000e+00  -8.6082092859309965e-04 2.2305009022753741e-03 0.0000000000000000e+00  -8.1934233683146314e-04 -2.1606071857274054e-03 0.0000000000000000e+00  -4.7483231683333636e-05 4.3881041553115482e-04 0.0000000000000000e+00  -5.9440823595813632e-05 1.8478363993229801e-03 0.0000000000000000e+00  -5.0013611073545819e-05 -7.6980927538823586e-04 0.0000000000000000e+00  -7.5717429051161520e-04 -1.6204311698085139e-04 0.0000000000000000e+00  -1.1773523474236109e-03 1.0286055013029938e-03 0.0000000000000000e+00  6.4030691819128298e-04 -2.2475838869637421e-03 0.0000000000000000e+00  2.7850198906780384e-03 -2.6500168077811838e-03 0.0000000000000000e+00  3.2520640948111501e-04 -5.7813067326367793e-04 0.0000000000000000e+00  -3.1678158185566828e-04 2.2357606638903800e-05 0.0000000000000000e+00  -4.4895193607079949e-04 6.4309376193671182e-04 0.0000000000000000e+00  -1.0773381818498032e-04 2.4894908024817116e-04 0.0000000000000000e+00  -1.2108623271850375e-04 3.9346327880386361e-04 0.0000000000000000e+00  -3.1006044402853289e-03 2.9064080543938567e-03 0.0000000000000000e+00  -1.8065229583808474e-03 6.0497434220105695e-03 0.0000000000000000e+00  -1.7832283632617950e-04 -3.4967907628555171e-03 0.0000000000000000e+00  -1.7842848912700679e-03 3.1639058339047424e-03 0.0000000000000000e+00  -1.5787494802852625e-05 -5.3658788412758269e-03 0.0000000000000000e+00  4.4906088179560962e-03 -4.4039790322165547e-03 0.0000000000000000e+00  6.5490289917138455e-04 1.1611431148788225e-03 0.0000000000000000e+00  -1.0559585176326213e-04 3.7090883209682827e-04 0.0000000000000000e+00  1.0391349329847085e-03 -1.0829241559040031e-03 0.0000000000000000e+00  2.5506403910614936e-04 -2.1801694406876349e-03 0.0000000000000000e+00  -1.8190521324018178e-03 1.5736548714182007e-03 0.0000000000000000e+00  -7.9881740331628944e-05 3.0009831601059595e-04 0.0000000000000000e+00  -5.6758786855229848e-04 -4.7454727601967143e-03 0.0000000000000000e+00  3.5103129992311759e-03 -1.5827104163362361e-04 0.0000000000000000e+00  -7.2181680687516056e-05 -2.0122114426200624e-03 0.0000000000000000e+00  1.5483510517474897e-03 -7.0543526016732371e-03 0.0000000000000000e+00  7.4212872713850565e-04 1.0753001016624102e-03 0.0000000000000000e+00  -3.6918050555017105e-04 2.5016297711316134e-03 0.0000000000000000e+00  5.2468343252532780e-04 -1.2040715198445536e-03 0.0000000000000000e+00  1.9121253648381525e-03 -9.0977263787630960e-05 0.0000000000000000e+00  -4.2101185474324927e-05 -5.5175114030307012e-04 0.0000000000000000e+00  -3.3051435249662003e-03 6.7425961335976685e-03 0.0000000000000000e+00  1.2236735745846855e-04 3.2335692602608701e-03 0.0000000000000000e+00  1.2969531820376987e-03 7.3634344622709614e-03 0.0000000000000000e+00  1.2041344291914102e-04 -6.1452614819367121e-04 0.0000000000000000e+00  8.5075838233168106e-05 3.8262816312165820e-04 0.0000000000000000e+00  1.5852444996107770e-03 -1.1164610805865884e-03 0.0000000000000000e+00  6.0535414298075409e-07 -3.0402289459938365e-04 0.0000000000000000e+00  -1.8930065037358603e-04 4.5341326359853162e-04 0.0000000000000000e+00  -8.790772217873159