<?xml version="1.0"?>
<VTKFile type="UnstructuredGrid"  version="0.1"  >
<UnstructuredGrid>
<Piece  NumberOfPoints="1385" NumberOfCells="2640">
<Points>
<DataArray  type="Float64"  NumberOfComponents="3"  format="ascii">0 0 0  1 0 0  1 1 0  0 1 0  0.5 0 0  1 0.5 0  0.5 1 0  0 0.5 0  0.5 0.5 0  0 0.25 0  0.25 0 0  0.25 1 0  0 0.75 0  1 0.25 0  0.75 0 0  1 0.75 0  0.75 1 0  0.7083333333333333 0.2916666666666667 0  0.2916666666666666 0.7083333333333334 0  0.375 0.25 0  0.75 0.625 0  0.2569444444444444 0.4652777777777778 0  0.5366379310344828 0.7535919540229885 0  0.1875 0.1875 0  0.8125 0.8125 0  0.869047619047619 0.375 0  0.1450441919191919 0.6052714646464646 0  0.375 0.8690476190476191 0  0.5526960784313725 0.1825980392156862 0  0.8385416666666666 0.1614583333333334 0  0.1614583333333333 0.8385416666666667 0  0.6736111111111112 0.4652777777777778 0  0.1367521367521368 0.3477564102564102 0  0.6570970491253563 0.8648656830417855 0  0.5102479397556124 0.3386260301221938 0  0.3654513888888889 0.5737847222222222 0  0.6929750044954185 0.1362784921584263 0  0.388576102743835 0.411911725237599 0  0.6091269841269842 0.5942460317460317 0  0.875 0.6875 0  0.427278890279516 0.119889445139758 0  0.8544456845238095 0.5213913690476191 0  0.125 0 0  0 0.125 0  1 0.875 0  0.875 1 0  0.1280008648150532 0.4769292340226777 0  0.2695382451711197 0.3321750950221553 0  0.7031567235715964 0.7447810921428012 0  0.625 0 0  0.375 0 0  0.125 1 0  0.875 0 0  0 0.375 0  0 0.625 0  1 0.375 0  0.375 1 0  1 0.125 0  0 0.875 0  0.625 1 0  1 0.625 0  0.2979288363930608 0.1201429454643536 0  0.410919540229885 0.7484605911330049 0  0.5325041980395562 0.878905151526474 0  0.4831670727569156 0.6331060043826487 0  0.1735997378973042 0.7204747378973043 0  0.2534919507575758 0.5772372159090909 0  0.2633928571428572 0.8876488095238095 0  0.8199404761904761 0.2730654761904762 0  0.75830270586982 0.3919383189517417 0  0.5750282248382511 0.4237522353023667 0  0.6008360210023379 0.2794828358598495 0  0.08163442644334186 0.6821295860397322 0  0.08333333333333333 0.1875 0  0.2028380815996574 0.08844602719988583 0  0.2766521142611967 0.2325436572164097 0  0.90625 0.78125 0  0.890625 0.890625 0  0.7545696325008384 0.8973565441669461 0  0.5625 0.08086590340834317 0  0.09077380952380953 0.09077380952380952 0  0.4610923478694773 0.209034015149656 0  0.7542527598351648 0.5248380520595106 0  0.6459235536037465 0.3619913988405765 0  0.7560381768882634 0.20506142233852 0  0.07073252688172042 0.8125 0  0.0924753097241701 0.9078102849914793 0  0.9292674731182795 0.1875 0  0.9075246902758297 0.09218971500852073 0  0.8125 0.07073252688172045 0  0.2400955776842301 0.7869705776842302 0  0.9121050213379069 0.2781978201831695 0  0.7916878157143976 0.7239689078571988 0  0.9345238095238094 0.4375 0  0.4375 0.9345238095238095 0  0.3725616989755203 0.6651895248862173 0  0.06536271996350887 0.5625 0  0.9348362560379583 0.5625 0  0.456646798987055 0.8277247094351965 0  0.1875 0.9355758238725954 0  0.6169761231634859 0.6939779188977889 0  0.6226854751147515 0.7827911461419014 0  0.3305695598137626 0.7901697871282585 0  0.5865305325818898 0.5101085479043448 0  0.6622701297028378 0.2177663989757395 0  0.1354166666666667 0.2591702279202279 0  0 0.3125 0  0.2094429575680048 0.3936361846162499 0  0.836666296419157 0.607917407161686 0  0.6875 1 0  0.214261555450504 0.6492551722020035 0  0 0.4375 0  0.07731537126068377 0.40625 0  0.3427725432967068 0.4879566233699599 0  0.3550792513951871 0.3331953632609953 0  0.4462473953896857 0.2887834789342508 0  0.4747801464819794 0.417386052030127 0  0.8229836475148948 0.4443292349237342 0  0.7322605135514757 0.8199240278289671 0  0.6756431877205955 0.5468989748126787 0  0.1968419507215863 0.5194573482612496 0  0.3285590277777778 0.9345238095238095 0  0.8125 1 0  0.4198917601920009 0.5134893045331258 0  0.5232405503206691 0.2595791787880157 0  1 0.9375 0  0.1987510870015086 0.3025185951894431 0  0.5625 1 0  0.6005390654136388 0.9228110509230952 0  0.6411254848194414 0.07704872765442942 0  0.3357233162523242 0.1855113224530532 0  0.6730653396610877 0.6393887462324165 0  0.310966987234063 0.6240019765311626 0  0.7368737836204349 0.07457755202327881 0  0.6192316414418171 0.1485238406378594 0  0.5432429670607106 0.678552703844006 0  0.4754371679695679 0.7103946803120881 0  0.07501324890749672 0.3043839897335739 0  0.5358146975860403 0.5688321463205916 0  0.3115271739500156 0.3982137365971444 0  0.3625191397122174 0.0767854603650549 0  0.5024029442563831 0.1264128223758444 0  0.4375 0 0  0.4699946908887376 0.06379961173775725 0  0.9375 0.71875 0  0.9272105898044465 0.635671179608893 0  0.9375 1 0  0.6690971819568612 0.9331530898202766 0  0.1073454944778885 0.7499206387638554 0  0.8699082999280406 0.2232403652524313 0  0.5773118091863964 0.3548027349159383 0  0.1354166666666667 0.1428571428571428 0  0.3125 0 0  0.8241684193077341 0.9257452995055244 0  0.4352314948354036 0.3586940847489378 0  0.4351301473778832 0.5819726043539077 0  0.8073232928518163 0.3419398170341962 0  0.7775949246947366 0.1298519409204575 0  0.6875 0 0  0.7413513991851041 0.457933324954483 0  0.939453125 0.841796875 0  0.5630355154606987 0.8171875156478349 0  0.9345238095238095 0.3461466592368577 0  0.9375 0 0  1 0.0625 0  0.0625 1 0  0 0.9375 0  0.06552178593177167 0.4969053669623468 0  0.1424866619031703 0.4130277709291224 0  0.1275287182444726 0.5422946908002588 0  0.2637686595586339 0.06413888464529549 0  0.2524263535491086 0.1697437503243817 0  0.7367218397988525 0.6888573970660841 0  0.0625 0 0  0 0.0625 0  0.8463594539285995 0.7578283617857982 0  0.3128751192101563 0.2851997374369947 0  0.4015281788351144 0.1806421385113692 0  0.1910251795116588 0.4553332197174453 0  0.287797471442006 0.5222621440543902 0  0.3962628745986055 0.8097380085535307 0  0.3505895299554843 0.7304878890838692 0  0.5019151500495276 0.9356042615328103 0  0.9374389419410134 0.4999931039076005 0  0.3125 1 0  0.1875 1 0  1 0.5625 0  0.4375 1 0  1 0.3125 0  1 0.4375 0  0.8125 0 0  1 0.1875 0  0.5625 0 0  0.1875 0 0  0 0.1875 0  0 0.5625 0  0 0.6875 0  0 0.8125 0  1 0.6875 0  1 0.8125 0  0.8021696218581627 0.6612893947866073 0  0.06154922295426143 0.6239401126946708 0  0.9359375 0.9359375 0  0.4666158024849896 0.7691515918155014 0  0.2318201265217025 0.7064974250277525 0  0.1565954253579966 0.6635489312486841 0  0.1598132503680848 0.7787147500325552 0  0.3146529991605639 0.8510876378205265 0  0.1461873209418733 0.05982804528877814 0  0.06109554988524315 0.2446551776247686 0  0.8054950308560754 0.5564226538848541 0  0.470541749491976 0.8853316336952531 0  0.6948472567465137 0.4042308563372457 0  0.8802828472348889 0.4658893256343853 0  0.6788075634946739 0.7974194205806069 0  0.2155048659603867 0.2428201584940968 0  0.8131223143423806 0.2132171049028394 0  0.4330798005432235 0.6671274900735726 0  0.6015279126162613 0.2187368078743274 0  0.8061636571464289 0.8703766630361714 0  0.7008230445061776 0.3478568388444072 0  0.8638466246958771 0.3147095987735538 0  0.204801534004265 0.8789209409594009 0  0.2449006736431132 0.9424182882803838 0  0.7611268409371427 0.2643056884799992 0  0.7552800864046191 0.7678006649959446 0  0.5983639638906616 0.864113435029236 0  0.1956559506814437 0.577281203577426 0  0.3527670268164207 0.1320469097565204 0  0.7530364577483248 0.3262386077083089 0  0.4535919187979363 0.4690107087451527 0  0.8824869791666666 0.8336588541666666 0  0.8814453125 0.9451171875 0  0.5582987942628019 0.622421666543858 0  0.6817532446064828 0.6939001801354731 0  0.3830295138888889 0.9450968952922078 0  0.4140603937012541 0.05211333372716105 0  0.5535864501303013 0.3060591985391672 0  0.6560130086346878 0.2729726562211558 0  0.890203140221684 0.5948314305427268 0  0.7043857725999024 0.593980890020804 0  0.5105843922695152 0.8016828014338627 0  0.05365910753708378 0.7315110031682004 0  0.616904573672261 0.4621186633436136 0  0.5338511646455415 0.387875898899613 0  0.5231769258947843 0.4477682463140762 0  0.650302973237622 0.7370722302085519 0  0.3927483139621257 0.4662414504529014 0  0.8034595960585199 0.4972538342758211 0  0.7738337841682438 0.9496376207663251 0  0.7193737507158268 0.954685447650112 0  0.482525916480686 0.5528257169991676 0  0.2533501157346781 0.2809495420003238 0  0.3118487924482243 0.5702930126570319 0  0.6257598847669529 0.4104163315430518 0  0.1354166666666667 0.1955605158730158 0  0.04166666666666666 0.15625 0  0.3956448985530264 0.6174149462065157 0  0.8102897701818546 0.3938784238208349 0  0.2641154190013625 0.8344469561943118 0  0.642852220770013 0.5068794586563659 0  0.05271458179508221 0.355846947336007 0  0.7021551360070266 0.8921457280225779 0  0.5692125776683765 0.1328512638850284 0  0.5206162811937602 0.04865158770992991 0  0.6001838442201555 0.04540556991297563 0  0.2597716608242787 0.4118346398477178 0  0.4040584599473195 0.3179589136784675 0  0.1480337679295207 0.8941560631483065 0  0.1344356707112281 0.9466251177415842 0  0.7114696411829317 0.4983917389078826 0  0.7585704698442475 0.5751926345944629 0  0.2189131956390871 0.04022068508159698 0  0.2476935455192043 0.1123642267635843 0  0.185995005654517 0.1365524537205238 0  0.6223414373308711 0.643380839165121 0  0.5732602596637543 0.7190051747306219 0  0.268358222364537 0.6586246524467934 0  0.3265879848129173 0.2369791782191225 0  0.1267095595787346 0.7034787238999181 0  0.1115202922226038 0.6421997933884982 0  0.3128688392940203 0.07260997451790079 0  0.550724900485678 0.9253360991633187 0  0.7142608810459105 0.2384904702214873 0  0.7045869185243887 0.1871826897887429 0  0.890625 0.734375 0  0.953125 0.765625 0  0.2111812642821677 0.8286209446459138 0  0.9590293078204457 0.09375 0  0.953431269039847 0.1435719386408004 0  0.04097069217955424 0.90625 0  0.04656873096015299 0.8564280613591996 0  0.1078743037981226 0.8541621766048062 0  0.8921256962018773 0.1458378233951939 0  0.8521576979194619 0.1084496634207678 0  0.8655663982740958 0.05464346096571447 0  0.04005659640905543 0.09375 0  0.1001448316533417 0.04246776244228261 
[...]
<PointData  Vectors="f_8889-0"> 
<DataArray  type="Float64"  Name="f_8889-0"  NumberOfComponents="3" format="ascii">7.0213550926091148e-03 3.1650662792711945e-03 0.0000000000000000e+00  3.7931220576091777e-04 -3.1127270575161473e-04 0.0000000000000000e+00  2.4759232675252915e-03 2.0388696065434917e-04 0.0000000000000000e+00  4.1820638620232008e-03 3.2322440514714066e-04 0.0000000000000000e+00  2.1110224741358158e-03 -4.9973501440913719e-03 0.0000000000000000e+00  -1.2813273086971272e-04 1.6301094768142235e-04 0.0000000000000000e+00  4.9316982161185787e-04 -2.1735471172931850e-04 0.0000000000000000e+00  3.0474395408652223e-03 -1.2929229463038015e-03 0.0000000000000000e+00  -7.3730319361427459e-04 -5.1835244975533142e-04 0.0000000000000000e+00  7.1737767871756352e-03 3.5342689603498796e-04 0.0000000000000000e+00  2.6046425456673411e-03 -2.7765802030509019e-03 0.0000000000000000e+00  -6.4614025931097072e-04 1.6427415849025661e-03 0.0000000000000000e+00  6.5290621431102081e-03 -1.1751846217344444e-03 0.0000000000000000e+00  -1.2044266147186160e-03 4.8679660954801754e-04 0.0000000000000000e+00  -1.7526188870001838e-04 1.5555822491254161e-03 0.0000000000000000e+00  1.4703615990960817e-03 -1.6181621717808851e-04 0.0000000000000000e+00  1.1947277642427975e-03 -3.9825263145954978e-04 0.0000000000000000e+00  5.8958937146272837e-04 -1.0412914938827363e-03 0.0000000000000000e+00  1.0315599524570672e-03 -4.8433929302837844e-04 0.0000000000000000e+00  -1.6060919259263595e-03 1.8483851956783220e-03 0.0000000000000000e+00  1.0005729353061608e-03 5.2251500913322736e-04 0.0000000000000000e+00  1.9068995322834249e-03 -2.0809261793587473e-03 0.0000000000000000e+00  8.7186579331265091e-04 6.2094185873910236e-04 0.0000000000000000e+00  -1.7646359692476985e-03 -3.1194766758223264e-03 0.0000000000000000e+00  4.6633037648380880e-04 -1.6735939631594711e-04 0.0000000000000000e+00  1.6445769521388426e-03 1.0543413753976925e-04 0.0000000000000000e+00  -1.4865001748046015e-03 1.1486709314163139e-03 0.0000000000000000e+00  2.5019342194228860e-03 8.5436056742329233e-05 0.0000000000000000e+00  3.0159540155934054e-03 7.5195798769802649e-04 0.0000000000000000e+00  -9.5615308852145672e-04 2.8087423710751984e-04 0.0000000000000000e+00  -1.1792641208024529e-03 -2.4293567305649991e-04 0.0000000000000000e+00  -4.5558110640857774e-04 -1.6663271620554955e-03 0.0000000000000000e+00  -1.6159971872031856e-03 5.5360197865369988e-04 0.0000000000000000e+00  5.2754788771486381e-04 -1.2669267997656185e-04 0.0000000000000000e+00  -1.5051779691354107e-03 -1.5699631560837364e-03 0.0000000000000000e+00  4.9510006425406766e-03 2.8729558152363211e-05 0.0000000000000000e+00  -5.0121602389987027e-03 -1.5590316292075804e-04 0.0000000000000000e+00  1.3782792232963446e-03 2.2652181825499112e-03 0.0000000000000000e+00  -3.2951953003831349e-04 1.2742809893736570e-03 0.0000000000000000e+00  4.2444406618607475e-04 1.6991016418814388e-05 0.0000000000000000e+00  1.1845890160314594e-03 -2.4638179789464292e-03 0.0000000000000000e+00  1.0806457415889674e-03 1.3224455168632759e-05 0.0000000000000000e+00  2.3609052596171541e-03 -1.7907296406452112e-03 0.0000000000000000e+00  5.4596319435305570e-03 -2.6517003147372036e-03 0.0000000000000000e+00  2.2449091709815048e-03 -2.9119983017879644e-04 0.0000000000000000e+00  7.5209188704711770e-04 -1.5187955523369243e-03 0.0000000000000000e+00  1.3963778608735325e-03 -6.6390297852569652e-04 0.0000000000000000e+00  5.8994670427913419e-03 3.0036021399183451e-04 0.0000000000000000e+00  2.0007631105535919e-04 2.1979422564059772e-04 0.0000000000000000e+00  4.1493879515438047e-03 -9.7210934674668028e-04 0.0000000000000000e+00  2.1196766178287990e-03 -2.0685698760613408e-04 0.0000000000000000e+00  -9.8673776160071859e-04 7.8046999997968868e-04 0.0000000000000000e+00  1.9844028202279469e-03 -5.9431902149873644e-04 0.0000000000000000e+00  7.0585949321524035e-03 -4.5637517649350597e-04 0.0000000000000000e+00  6.8924925022172401e-03 6.3059904062930279e-05 0.0000000000000000e+00  -9.8339355908645351e-04 2.5761206918579625e-04 0.0000000000000000e+00  -2.5921451404750017e-04 -1.0996411651089599e-04 0.0000000000000000e+00  -7.2460676631524730e-04 8.2586834547320755e-04 0.0000000000000000e+00  2.5737459304650688e-03 -1.0129293729334494e-03 0.0000000000000000e+00  6.8302610694193110e-04 -6.3933144376353645e-05 0.0000000000000000e+00  5.9962709217351701e-04 -8.6659096381094103e-05 0.0000000000000000e+00  -6.5671895124161134e-04 -1.0965849616218248e-03 0.0000000000000000e+00  -1.1004999198986703e-03 1.1300212545492800e-03 0.0000000000000000e+00  2.2050531524496329e-04 1.9666009001980750e-04 0.0000000000000000e+00  -5.2341125658362879e-04 8.6708079084260787e-04 0.0000000000000000e+00  7.1965324624704359e-04 -1.9556469771048815e-03 0.0000000000000000e+00  1.6316476925424736e-03 7.3179827847306262e-04 0.0000000000000000e+00  5.8375525106758907e-05 2.5118647459028355e-04 0.0000000000000000e+00  -2.8068230698124301e-03 1.2365529831204658e-04 0.0000000000000000e+00  -1.1180771693328688e-03 -1.0931199471128539e-03 0.0000000000000000e+00  -5.7968886450730133e-05 -9.7925291088183427e-04 0.0000000000000000e+00  5.3765800357345721e-03 6.6168630399357465e-04 0.0000000000000000e+00  -9.1062250654999274e-04 7.8989143126054174e-04 0.0000000000000000e+00  -3.6963836939311809e-03 -1.4158058274486335e-03 0.0000000000000000e+00  -5.5701937319631422e-03 1.5226689065530037e-03 0.0000000000000000e+00  3.8870827749637165e-03 -1.4265078836116813e-03 0.0000000000000000e+00  8.2982555227476440e-04 -4.0262338295088591e-04 0.0000000000000000e+00  5.9059974343387514e-04 2.6236997831337458e-06 0.0000000000000000e+00  5.6365147025146610e-04 -4.5220435762432544e-04 0.0000000000000000e+00  -3.1394823863200175e-03 -1.2178051589644486e-04 0.0000000000000000e+00  3.8131455455093295e-03 -2.1635982517047704e-03 0.0000000000000000e+00  -3.9993658354271697e-03 7.2278542164822804e-04 0.0000000000000000e+00  8.1943813632675416e-04 -7.2833535429469817e-05 0.0000000000000000e+00  -2.4354846534416140e-04 -3.1875196580233783e-05 0.0000000000000000e+00  1.4800794387260494e-03 1.0576040393769548e-03 0.0000000000000000e+00  2.6406956725330698e-03 5.9583367336037488e-04 0.0000000000000000e+00  1.7538375108282378e-03 3.4599074541833704e-04 0.0000000000000000e+00  2.7129379271466731e-03 -8.2897590197677541e-04 0.0000000000000000e+00  -1.7481108634195899e-03 6.3991183659555526e-04 0.0000000000000000e+00  1.5552865838851094e-03 -1.5426903144013428e-03 0.0000000000000000e+00  -8.4000930935936166e-04 8.0825737088564028e-04 0.0000000000000000e+00  1.3342271189640880e-03 6.1821766525869525e-04 0.0000000000000000e+00  6.5819512132224347e-04 -1.3129483935910634e-05 0.0000000000000000e+00  1.3702347629891785e-03 -2.7521304815901579e-04 0.0000000000000000e+00  1.3237324440404817e-03 8.9778260997231822e-05 0.0000000000000000e+00  -2.2274339153632414e-03 -9.1675696507413396e-05 0.0000000000000000e+00  -1.7095588773636554e-03 3.1618273645474225e-03 0.0000000000000000e+00  9.4788317496983046e-04 2.9755318688154343e-05 0.0000000000000000e+00  1.4965798870096587e-03 -1.2362605110036293e-03 0.0000000000000000e+00  -8.5678740006646533e-04 5.9456675776957955e-04 0.0000000000000000e+00  2.3848045600703314e-04 -6.2845055746443346e-04 0.0000000000000000e+00  5.6781511583183430e-04 2.7537642692793476e-04 0.0000000000000000e+00  3.3850580186489503e-04 -3.8056302493287919e-03 0.0000000000000000e+00  1.7401808823830176e-03 -7.8869904787871653e-04 0.0000000000000000e+00  -1.1784723264028696e-03 2.6246826379732169e-03 0.0000000000000000e+00  -1.8138233459556584e-03 -1.5197047260528389e-03 0.0000000000000000e+00  9.7428353366462014e-04 -1.6203330543519076e-03 0.0000000000000000e+00  -1.9875911232445689e-05 -1.3224556262944483e-03 0.0000000000000000e+00  6.3617961267282242e-06 2.5478663272136012e-04 0.0000000000000000e+00  6.6429618021379580e-04 -2.6974932477364418e-04 0.0000000000000000e+00  -9.5154857243120257e-05 1.2238961260361513e-03 0.0000000000000000e+00  4.3589560813584623e-03 -1.9458125435673794e-03 0.0000000000000000e+00  -1.3181851670240805e-03 2.2223609669670100e-04 0.0000000000000000e+00  -3.2922466146162563e-03 -1.0858111871859043e-03 0.0000000000000000e+00  -1.3855950785869142e-03 -1.7358705678116543e-03 0.0000000000000000e+00  2.1401351167491343e-03 1.4906655121286142e-03 0.0000000000000000e+00  2.8188323664921295e-04 -2.6089629429220046e-03 0.0000000000000000e+00  -7.3803761993597580e-04 6.1543451694751137e-04 0.0000000000000000e+00  5.0795464168536600e-04 1.8343976785398182e-05 0.0000000000000000e+00  8.5499865792114897e-05 -9.3618525550439691e-04 0.0000000000000000e+00  -3.9947196000079659e-03 -6.2559977551687003e-04 0.0000000000000000e+00  -4.6711658401452918e-04 5.6702680490068808e-05 0.0000000000000000e+00  2.0208447567048450e-03 -1.0051326448015977e-03 0.0000000000000000e+00  2.9303672194466311e-03 -7.3565646511115400e-03 0.0000000000000000e+00  -2.0246349077533109e-03 1.5009275506577555e-03 0.0000000000000000e+00  2.8690394357155039e-03 4.0189008774717109e-05 0.0000000000000000e+00  1.9441388740823495e-03 -9.3561077166251180e-04 0.0000000000000000e+00  3.8103553348725670e-04 3.6775701742459185e-05 0.0000000000000000e+00  6.9969605239627349e-04 -4.8521184334870710e-05 0.0000000000000000e+00  2.3267714055109287e-03 -2.1486168634040899e-03 0.0000000000000000e+00  4.7521765827226031e-03 7.3305697704102290e-04 0.0000000000000000e+00  1.3680573922759736e-03 -1.2729905015017564e-04 0.0000000000000000e+00  -2.9477379452861252e-03 4.7481139564763857e-04 0.0000000000000000e+00  4.1434217325081171e-03 -2.8168976651477072e-04 0.0000000000000000e+00  2.7371666603012040e-03 -1.9363217794825434e-03 0.0000000000000000e+00  1.5961147735913980e-03 -7.3067363303182687e-04 0.0000000000000000e+00  1.9279550876595438e-03 -8.3056800376976657e-04 0.0000000000000000e+00  -2.0594190346950678e-03 -1.5613679249446179e-04 0.0000000000000000e+00  1.7353666195519264e-03 -2.6266473024108095e-04 0.0000000000000000e+00  1.5212947413863660e-03 -2.0899511569483450e-03 0.0000000000000000e+00  3.1158955406425100e-04 3.1030226915757459e-03 0.0000000000000000e+00  -1.5585141993072283e-03 -1.0621642730907670e-03 0.0000000000000000e+00  2.0072379197414924e-03 -5.6681748650083631e-04 0.0000000000000000e+00  -3.4742415043602262e-04 3.4311999786458569e-04 0.0000000000000000e+00  9.2269175504921998e-04 -5.6120323691857008e-05 0.0000000000000000e+00  4.9570558609571649e-04 -1.0799966823568934e-05 0.0000000000000000e+00  1.6589925221066433e-03 2.9962567416110870e-04 0.0000000000000000e+00  3.4805725842592295e-04 8.4691861413590069e-05 0.0000000000000000e+00  -2.9564231415165130e-03 8.8429896140747657e-04 0.0000000000000000e+00  -4.1898461858459583e-04 3.6562070157827934e-04 0.0000000000000000e+00  4.7527318299041901e-03 -7.3653325833114265e-04 0.0000000000000000e+00  1.8040393271932049e-04 -1.8100439790676420e-04 0.0000000000000000e+00  3.5535646159955158e-03 -1.3524367814122130e-03 0.0000000000000000e+00  2.1200621002512808e-04 3.1806310998837008e-04 0.0000000000000000e+00  3.2128312014574833e-03 -1.2190069809572580e-03 0.0000000000000000e+00  -9.3186826688842258e-06 -3.0939196616544171e-04 0.0000000000000000e+00  2.5710291970581513e-03 2.3401130774901223e-04 0.0000000000000000e+00  2.5390473138813610e-03 -3.8195169447352330e-03 0.0000000000000000e+00  2.3903005282663319e-03 -2.1869546060219861e-04 0.0000000000000000e+00  -1.2805800495805559e-03 4.0809212807591791e-04 0.0000000000000000e+00  -7.8175854898613738e-04 -9.2785711731617091e-04 0.0000000000000000e+00  -6.2954837171762300e-05 3.6750685588382440e-04 0.0000000000000000e+00  -8.8090162772987417e-04 1.7387810214366159e-03 0.0000000000000000e+00  2.1018019114532631e-03 -1.0303503735955796e-03 0.0000000000000000e+00  -2.4906187305990921e-03 6.4131886494019411e-04 0.0000000000000000e+00  -9.8588320644851443e-04 1.0486449125473511e-03 0.0000000000000000e+00  4.2571522648988018e-03 -9.5631247458961995e-04 0.0000000000000000e+00  -4.0031766655109187e-03 9.0520465471010238e-04 0.0000000000000000e+00  6.2051595228466584e-03 -1.1017798432032238e-03 0.0000000000000000e+00  8.9111374731739071e-04 -7.9457942060629991e-04 0.0000000000000000e+00  -2.0068345987512642e-03 -7.1227832175919091e-04 0.0000000000000000e+00  5.5043947051708559e-03 -1.7293773130056135e-05 0.0000000000000000e+00  5.9717004629049623e-04 -4.8758216981915064e-05 0.0000000000000000e+00  2.3893189868759135e-03 -2.1904825244407570e-03 0.0000000000000000e+00  3.9938450479851673e-03 -1.5529003570555568e-03 0.0000000000000000e+00  5.3614405408428860e-04 -3.9918774789758047e-05 0.0000000000000000e+00  -1.3695138961782858e-03 -2.5476816144885846e-04 0.0000000000000000e+00  2.7943628212617386e-03 7.6633076013680503e-04 0.0000000000000000e+00  -2.6504459529546782e-03 2.5659461921745830e-03 0.0000000000000000e+00  1.4590737078437833e-03 1.1951060970156577e-03 0.0000000000000000e+00  -4.3499800545501743e-04 1.3170473568726714e-04 0.0000000000000000e+00  2.2849382841842094e-03 7.9201141077176373e-04 0.0000000000000000e+00  -1.4403511434036992e-04 4.9931798191285906e-04 0.0000000000000000e+00  6.2166161978522143e-04 -5.3610185644804072e-04 0.0000000000000000e+00  2.2531562217656463e-04 1.7743551113966814e-03 0.0000000000000000e+00  -1.3333434962632560e-03 4.6544745020092072e-04 0.0000000000000000e+00  4.2917074562667595e-04 8.1962033492325814e-05 0.0000000000000000e+00  -7.8159974885662779e-05 -2.7233645680866970e-05 0.0000000000000000e+00  -1.0143708184927787e-03 4.6548970182667200e-04 0.0000000000000000e+00  -4.8948901232069510e-04 4.0572950779300748e-04 0.0000000000000000e+00  2.0919874023776377e-03 -7.8427987418290188e-04 0.0000000000000000e+00  -2.0786161064949415e-03 5.6579681699778044e-04 0.0000000000000000e+00  2.2827509781399779e-03 1.5873443891353898e-04 0.0000000000000000e+00  3.8363592342661847e-03 -7.7421175906753747e-04 0.0000000000000000e+00  2.5284642608393590e-03 -1.0041074029264172e-03 0.0000000000000000e+00  8.9380156194964547e-03 -1.1029495873222019e-03 0.0000000000000000e+00  8.2433879743938187e-04 -6.8487067113285434e-04 0.0000000000000000e+00  5.0911347354343772e-03 -7.5840833353252486e-04 0.0000000000000000e+00  8.2606139239722713e-04 -2.0034859490902581e-04 0.0000000000000000e+00  2.6592877741805541e-03 -5.4242066909149581e-04 0.0000000000000000e+00  4.2210686340302095e-04 -2.4735669637539009e-04 0.0000000000000000e+00  -3.3312884476551904e-05 1.0974377484127922e-03 0.0000000000000000e+00  -6.5791454485896611e-04 -9.6942262364796102e-05 0.0000000000000000e+00  1.3943593718555251e-03 -2.7038372301758034e-04 0.0000000000000000e+00  5.5023398009280250e-04 -5.4268849603022877e-04 0.0000000000000000e+00  9.7112251138146359e-04 8.9983793386356375e-04 0.0000000000000000e+00  4.6231552730031178e-03 -2.3792374759777804e-03 0.0000000000000000e+00  1.1249090546814387e-03 -1.8593074651529504e-03 0.0000000000000000e+00  2.0720448364880194e-03 -2.3641908060068038e-03 0.0000000000000000e+00  -3.1839359949835068e-03 5.7453086354144773e-03 0.0000000000000000e+00  6.0856642042583060e-04 3.1976994743207531e-06 0.0000000000000000e+00  5.7181393194150325e-04 -1.4913008076707708e-04 0.0000000000000000e+00  -2.2189155715714799e-03 3.3829249917570348e-03 0.0000000000000000e+00  1.4471514103790194e-03 7.4488984461283322e-05 0.0000000000000000e+00  4.8488115609317094e-04 2.0123117470867058e-04 0.0000000000000000e+00  5.4571859108449514e-03 -4.9362306425390634e-04 0.0000000000000000e+00  1.1484443261334633e-03 -2.9180854008445702e-03 0.0000000000000000e+00  1.3989790564262747e-03 -1.1139071982433481e-03 0.0000000000000000e+00  -7.6617714711784107e-04 -3.2465733759545258e-04 0.0000000000000000e+00  1.3883518309232995e-04 -4.2413237489087656e-05 0.0000000000000000e+00  3.1051598449482157e-03 5.5342682198142377e-04 0.0000000000000000e+00  6.1001426848240697e-04 -9.6120307021196099e-05 0.0000000000000000e+00  -3.4384960747824839e-04 -4.4379698695766229e-04 0.0000000000000000e+00  1.1820870489428717e-03 -7.0442593446088135e-04 0.0000000000000000e+00  -1.2314513331980578e-03 1.5503564089031281e-04 0.0000000000000000e+00  5.0085247999993822e-04 8.6550885177061007e-05 0.0000000000000000e+00  6.6273264603361958e-04 6.0935714138024620e-06 0.0000000000000000e+00  4.0981080826584717e-03 -2.0511824713368358e-03 0.0000000000000000e+00  -9.4727231623394558e-04 -2.1282577425572853e-03 0.0000000000000000e+00  -2.4473664043117732e-03 -2.3039048797996657e-07 0.0000000000000000e+00  1.0558803958315073e-03 -1.1421602762863299e-03 0.0000000000000000e+00  -4.3824543248442076e-04 8.1125259744497299e-04 0.0000000000000000e+00  9.6173076341629952e-04 -3.3545711061515766e-04 0.0000000000000000e+00  -7.9623245674901276e-04 -3.1614555113515345e-04 0.0000000000000000e+00  -3.4165917946152129e-04 1.0210513601701339e-04 0.0000000000000000e+00  1.2112365552193779e-03 -3.2725319358253841e-04 0.0000000000000000e+00  1.6340209024713966e-03 -1.0710124371305974e-03 0.0000000000000000e+00  2.7599239928996779e-03 -9.6608723344704384e-04 0.0000000000000000e+00  1.2095667397940693e-03 -1.8115035890507519e-04 0.0000000000000000e+00  4.7942351820880137e-04 -7.5391800589471464e-05 0.0000000000000000e+00  2.1640351627411074e-03 -5.4418647384477141e-05 0.0000000000000000e+00  5.5572352573341323e-04 -2.0696071392178776e-05 0.0000000000000000e+00  1.6473824758335587e-03 7.0664511009422399e-04 0.0000000000000000e+00  1.2679477702163718e-03 -7.2780820532678220e-04 0.0000000000000000e+00  -1.5984977290965797e-03 1.6449343858271671e-03 0.0000000000000000e+00  -3.1230874132565484e-03 6.2294074275547041e-04 0.0000000000000000e+00  -6.1847730365431511e-05 1.0510908191614802e-03 0.0000000000000000e+00  -2.0759653060386410e-03 -4.5874331698317230e-04 0.0000000000000000e+00  6.6073416132801546e-05 -3.8361324389490713e-04 0.0000000000000000e+00  1.1948041044903513e-03 -5.1452504855753608e-04 0.0000000000000000e+00  8.8089366352096657e-04 -2.4017062630631611e-04 0.0000000000000000e+00  -1.7270013795204699e-03 -7.7199447147003513e-04 0.0000000000000000e+00  -8.5553804600101840e-04 1.1334928057017888e-03 0.0000000000000000e+00  -1.1340539487993172e-03 1.4865579306034059e-03 0.0000000000000000e+00  8.5736695723226983e-04 -5.5617379921418038e-04 0.0000000000000000e+00  -3.3129620972327592e-03 7.2784828239714702e-04 0.0000000000000000e+00  -3.3503382926123849e-03 2.0173247273890613e-03 0.0000000000000000e+00  -1.3394489787689375e-03 1.8375878598334786e-03 0.0000000000000000e+00  1.1463456427888133e-03 -3.9049097760810076e-04 0.0000000000000000e+00  1.1703603134748171e-03 1.8125889003183183e-03 0.0000000000000000e+00  -3.5303809573070458e-05 1.3000141697814477e-03 0.0000000000000000e+00  4.2066964609391404e-03 -1.5979511320566664e-03 0.0000000000000000e+00  3.4468352267571676e-04 -5.4521206229062095e-05 0.0000000000000000e+00  7.2609269215688423e-04 -1.6097866322161815e-03 0.0000000000000000e+00  -3.2152552472803570e-03 8.8406711193166640e-04 0.0000000000000000e+00  -2.3778660702736569e-03 1.2298939333199883e-03 0.0000000000000000e+00  -3.6504286440994702e-03 1.5237375106568565e-03 0.0000000000000000e+00  -8.5012209414999642e-04 3.3509490643232327e-04 0.0000000000000000e+00  1.5603808980843242e-03 6.9361593632399779e-04 0.0000000000000000e+00  8.1397827085424813e-05 6.8870730591726731e-04 0.0000000000000000e+00  -6.4282846084151774e-04 2.7450913788534521e-04 0.0000000000000000e+00  -6.4953095847816798e-05 2.5267534080682547e-04 0.0000000000000000e+00  -1.8497387971560950e-04 -1.0608301196710383e-03 0.0000000000000000e+00  -8.6302870889710817e-04 -2.6498374659603217e-04 0.0000000000000000e+00  1.5358359086413628e-03 2.3728825831826048e-03 0.0000000000000000e+00  1.2238993171293064e-03 6.0732170653425880e-05 0.0000000000000000e+00  1.2090126938004158e-04 -5.5825383356945184e-04 0.0000000000000000e+00  -1.9466013141900251e-04 9.7688847602327676e-04 0.0000000000000000e+00  3.3170205825037036e-03 -1.2479201733247426e-03 0.0000000000000000e+00  -9.4596552051072350e-04 -9.6980869145835440e-04 0.0000000000000000e+00  -1.5271224527081476e-03 -