<?xml version="1.0"?>
<VTKFile type="UnstructuredGrid"  version="0.1"  >
<UnstructuredGrid>
<Piece  NumberOfPoints="1385" NumberOfCells="2640">
<Points>
<DataArray  type="Float64"  NumberOfComponents="3"  format="ascii">0 0 0  1 0 0  1 1 0  0 1 0  0.5 0 0  1 0.5 0  0.5 1 0  0 0.5 0  0.5 0.5 0  0 0.25 0  0.25 0 0  0.25 1 0  0 0.75 0  1 0.25 0  0.75 0 0  1 0.75 0  0.75 1 0  0.7083333333333333 0.2916666666666667 0  0.2916666666666666 0.7083333333333334 0  0.375 0.25 0  0.75 0.625 0  0.2569444444444444 0.4652777777777778 0  0.5366379310344828 0.7535919540229885 0  0.1875 0.1875 0  0.8125 0.8125 0  0.869047619047619 0.375 0  0.1450441919191919 0.6052714646464646 0  0.375 0.8690476190476191 0  0.5526960784313725 0.1825980392156862 0  0.8385416666666666 0.1614583333333334 0  0.1614583333333333 0.8385416666666667 0  0.6736111111111112 0.4652777777777778 0  0.1367521367521368 0.3477564102564102 0  0.6570970491253563 0.8648656830417855 0  0.5102479397556124 0.3386260301221938 0  0.3654513888888889 0.5737847222222222 0  0.6929750044954185 0.1362784921584263 0  0.388576102743835 0.411911725237599 0  0.6091269841269842 0.5942460317460317 0  0.875 0.6875 0  0.427278890279516 0.119889445139758 0  0.8544456845238095 0.5213913690476191 0  0.125 0 0  0 0.125 0  1 0.875 0  0.875 1 0  0.1280008648150532 0.4769292340226777 0  0.2695382451711197 0.3321750950221553 0  0.7031567235715964 0.7447810921428012 0  0.625 0 0  0.375 0 0  0.125 1 0  0.875 0 0  0 0.375 0  0 0.625 0  1 0.375 0  0.375 1 0  1 0.125 0  0 0.875 0  0.625 1 0  1 0.625 0  0.2979288363930608 0.1201429454643536 0  0.410919540229885 0.7484605911330049 0  0.5325041980395562 0.878905151526474 0  0.4831670727569156 0.6331060043826487 0  0.1735997378973042 0.7204747378973043 0  0.2534919507575758 0.5772372159090909 0  0.2633928571428572 0.8876488095238095 0  0.8199404761904761 0.2730654761904762 0  0.75830270586982 0.3919383189517417 0  0.5750282248382511 0.4237522353023667 0  0.6008360210023379 0.2794828358598495 0  0.08163442644334186 0.6821295860397322 0  0.08333333333333333 0.1875 0  0.2028380815996574 0.08844602719988583 0  0.2766521142611967 0.2325436572164097 0  0.90625 0.78125 0  0.890625 0.890625 0  0.7545696325008384 0.8973565441669461 0  0.5625 0.08086590340834317 0  0.09077380952380953 0.09077380952380952 0  0.4610923478694773 0.209034015149656 0  0.7542527598351648 0.5248380520595106 0  0.6459235536037465 0.3619913988405765 0  0.7560381768882634 0.20506142233852 0  0.07073252688172042 0.8125 0  0.0924753097241701 0.9078102849914793 0  0.9292674731182795 0.1875 0  0.9075246902758297 0.09218971500852073 0  0.8125 0.07073252688172045 0  0.2400955776842301 0.7869705776842302 0  0.9121050213379069 0.2781978201831695 0  0.7916878157143976 0.7239689078571988 0  0.9345238095238094 0.4375 0  0.4375 0.9345238095238095 0  0.3725616989755203 0.6651895248862173 0  0.06536271996350887 0.5625 0  0.9348362560379583 0.5625 0  0.456646798987055 0.8277247094351965 0  0.1875 0.9355758238725954 0  0.6169761231634859 0.6939779188977889 0  0.6226854751147515 0.7827911461419014 0  0.3305695598137626 0.7901697871282585 0  0.5865305325818898 0.5101085479043448 0  0.6622701297028378 0.2177663989757395 0  0.1354166666666667 0.2591702279202279 0  0 0.3125 0  0.2094429575680048 0.3936361846162499 0  0.836666296419157 0.607917407161686 0  0.6875 1 0  0.214261555450504 0.6492551722020035 0  0 0.4375 0  0.07731537126068377 0.40625 0  0.3427725432967068 0.4879566233699599 0  0.3550792513951871 0.3331953632609953 0  0.4462473953896857 0.2887834789342508 0  0.4747801464819794 0.417386052030127 0  0.8229836475148948 0.4443292349237342 0  0.7322605135514757 0.8199240278289671 0  0.6756431877205955 0.5468989748126787 0  0.1968419507215863 0.5194573482612496 0  0.3285590277777778 0.9345238095238095 0  0.8125 1 0  0.4198917601920009 0.5134893045331258 0  0.5232405503206691 0.2595791787880157 0  1 0.9375 0  0.1987510870015086 0.3025185951894431 0  0.5625 1 0  0.6005390654136388 0.9228110509230952 0  0.6411254848194414 0.07704872765442942 0  0.3357233162523242 0.1855113224530532 0  0.6730653396610877 0.6393887462324165 0  0.310966987234063 0.6240019765311626 0  0.7368737836204349 0.07457755202327881 0  0.6192316414418171 0.1485238406378594 0  0.5432429670607106 0.678552703844006 0  0.4754371679695679 0.7103946803120881 0  0.07501324890749672 0.3043839897335739 0  0.5358146975860403 0.5688321463205916 0  0.3115271739500156 0.3982137365971444 0  0.3625191397122174 0.0767854603650549 0  0.5024029442563831 0.1264128223758444 0  0.4375 0 0  0.4699946908887376 0.06379961173775725 0  0.9375 0.71875 0  0.9272105898044465 0.635671179608893 0  0.9375 1 0  0.6690971819568612 0.9331530898202766 0  0.1073454944778885 0.7499206387638554 0  0.8699082999280406 0.2232403652524313 0  0.5773118091863964 0.3548027349159383 0  0.1354166666666667 0.1428571428571428 0  0.3125 0 0  0.8241684193077341 0.9257452995055244 0  0.4352314948354036 0.3586940847489378 0  0.4351301473778832 0.5819726043539077 0  0.8073232928518163 0.3419398170341962 0  0.7775949246947366 0.1298519409204575 0  0.6875 0 0  0.7413513991851041 0.457933324954483 0  0.939453125 0.841796875 0  0.5630355154606987 0.8171875156478349 0  0.9345238095238095 0.3461466592368577 0  0.9375 0 0  1 0.0625 0  0.0625 1 0  0 0.9375 0  0.06552178593177167 0.4969053669623468 0  0.1424866619031703 0.4130277709291224 0  0.1275287182444726 0.5422946908002588 0  0.2637686595586339 0.06413888464529549 0  0.2524263535491086 0.1697437503243817 0  0.7367218397988525 0.6888573970660841 0  0.0625 0 0  0 0.0625 0  0.8463594539285995 0.7578283617857982 0  0.3128751192101563 0.2851997374369947 0  0.4015281788351144 0.1806421385113692 0  0.1910251795116588 0.4553332197174453 0  0.287797471442006 0.5222621440543902 0  0.3962628745986055 0.8097380085535307 0  0.3505895299554843 0.7304878890838692 0  0.5019151500495276 0.9356042615328103 0  0.9374389419410134 0.4999931039076005 0  0.3125 1 0  0.1875 1 0  1 0.5625 0  0.4375 1 0  1 0.3125 0  1 0.4375 0  0.8125 0 0  1 0.1875 0  0.5625 0 0  0.1875 0 0  0 0.1875 0  0 0.5625 0  0 0.6875 0  0 0.8125 0  1 0.6875 0  1 0.8125 0  0.8021696218581627 0.6612893947866073 0  0.06154922295426143 0.6239401126946708 0  0.9359375 0.9359375 0  0.4666158024849896 0.7691515918155014 0  0.2318201265217025 0.7064974250277525 0  0.1565954253579966 0.6635489312486841 0  0.1598132503680848 0.7787147500325552 0  0.3146529991605639 0.8510876378205265 0  0.1461873209418733 0.05982804528877814 0  0.06109554988524315 0.2446551776247686 0  0.8054950308560754 0.5564226538848541 0  0.470541749491976 0.8853316336952531 0  0.6948472567465137 0.4042308563372457 0  0.8802828472348889 0.4658893256343853 0  0.6788075634946739 0.7974194205806069 0  0.2155048659603867 0.2428201584940968 0  0.8131223143423806 0.2132171049028394 0  0.4330798005432235 0.6671274900735726 0  0.6015279126162613 0.2187368078743274 0  0.8061636571464289 0.8703766630361714 0  0.7008230445061776 0.3478568388444072 0  0.8638466246958771 0.3147095987735538 0  0.204801534004265 0.8789209409594009 0  0.2449006736431132 0.9424182882803838 0  0.7611268409371427 0.2643056884799992 0  0.7552800864046191 0.7678006649959446 0  0.5983639638906616 0.864113435029236 0  0.1956559506814437 0.577281203577426 0  0.3527670268164207 0.1320469097565204 0  0.7530364577483248 0.3262386077083089 0  0.4535919187979363 0.4690107087451527 0  0.8824869791666666 0.8336588541666666 0  0.8814453125 0.9451171875 0  0.5582987942628019 0.622421666543858 0  0.6817532446064828 0.6939001801354731 0  0.3830295138888889 0.9450968952922078 0  0.4140603937012541 0.05211333372716105 0  0.5535864501303013 0.3060591985391672 0  0.6560130086346878 0.2729726562211558 0  0.890203140221684 0.5948314305427268 0  0.7043857725999024 0.593980890020804 0  0.5105843922695152 0.8016828014338627 0  0.05365910753708378 0.7315110031682004 0  0.616904573672261 0.4621186633436136 0  0.5338511646455415 0.387875898899613 0  0.5231769258947843 0.4477682463140762 0  0.650302973237622 0.7370722302085519 0  0.3927483139621257 0.4662414504529014 0  0.8034595960585199 0.4972538342758211 0  0.7738337841682438 0.9496376207663251 0  0.7193737507158268 0.954685447650112 0  0.482525916480686 0.5528257169991676 0  0.2533501157346781 0.2809495420003238 0  0.3118487924482243 0.5702930126570319 0  0.6257598847669529 0.4104163315430518 0  0.1354166666666667 0.1955605158730158 0  0.04166666666666666 0.15625 0  0.3956448985530264 0.6174149462065157 0  0.8102897701818546 0.3938784238208349 0  0.2641154190013625 0.8344469561943118 0  0.642852220770013 0.5068794586563659 0  0.05271458179508221 0.355846947336007 0  0.7021551360070266 0.8921457280225779 0  0.5692125776683765 0.1328512638850284 0  0.5206162811937602 0.04865158770992991 0  0.6001838442201555 0.04540556991297563 0  0.2597716608242787 0.4118346398477178 0  0.4040584599473195 0.3179589136784675 0  0.1480337679295207 0.8941560631483065 0  0.1344356707112281 0.9466251177415842 0  0.7114696411829317 0.4983917389078826 0  0.7585704698442475 0.5751926345944629 0  0.2189131956390871 0.04022068508159698 0  0.2476935455192043 0.1123642267635843 0  0.185995005654517 0.1365524537205238 0  0.6223414373308711 0.643380839165121 0  0.5732602596637543 0.7190051747306219 0  0.268358222364537 0.6586246524467934 0  0.3265879848129173 0.2369791782191225 0  0.1267095595787346 0.7034787238999181 0  0.1115202922226038 0.6421997933884982 0  0.3128688392940203 0.07260997451790079 0  0.550724900485678 0.9253360991633187 0  0.7142608810459105 0.2384904702214873 0  0.7045869185243887 0.1871826897887429 0  0.890625 0.734375 0  0.953125 0.765625 0  0.2111812642821677 0.8286209446459138 0  0.9590293078204457 0.09375 0  0.953431269039847 0.1435719386408004 0  0.04097069217955424 0.90625 0  0.04656873096015299 0.8564280613591996 0  0.1078743037981226 0.8541621766048062 0  0.8921256962018773 0.1458378233951939 0  0.8521576979194619 0.1084496634207678 0  0.8655663982740958 0.05464346096571447 0  0.04005659640905543 0.09375 0  0.1001448316533417 0.04246776244228261 
[...]
<PointData  Scalars="f_8394-2"> 
<DataArray  type="Float64"  Name="f_8394-2"  format="ascii">-3.3355407610727192e-04  9.7870041608106575e-04  -6.6247697632440604e-05  -5.2336790001734201e-03  6.0030614329801754e-04  4.7594927259835591e-05  -4.2429063086900710e-05  -5.1992750904344617e-04  -4.1004148045245031e-05  -3.0329365274569907e-04  -4.3620228721370926e-04  -1.0905396774736387e-04  -1.3304090619847162e-03  1.1484141511293683e-04  3.0675282226719138e-04  3.7339487446471021e-05  -8.1196092070736099e-05  1.8939707224823110e-05  2.8911506900375937e-05  -4.2664286044620319e-05  2.3712154614189679e-05  5.4549731632745350e-05  5.7745432161580532e-05  2.9603570445282137e-05  1.6213924533753705e-05  -8.4976039226549811e-06  -6.0825245339052623e-05  -6.1035863112533567e-05  7.2896129465177011e-05  7.9665435758488081e-05  5.4521498923486782e-05  -5.8718399158329005e-05  -1.5324690751654447e-04  1.1188602731036690e-05  -8.1240257640053553e-05  9.0380516864327375e-06  7.5707416938959387e-06  9.9657820696010199e-05  -4.2847310391070409e-05  -5.3565908414938446e-05  9.9800796842986790e-05  -2.0151415392175566e-05  -3.2406708195613137e-04  -1.4400473081762233e-03  -3.7457799283012387e-07  2.4347010482822637e-04  -6.7597792791386423e-06  5.4562663069182816e-05  3.4851327803888853e-05  6.9793087246952651e-05  4.3728618066259567e-04  4.6724040591345865e-05  2.1977397569507935e-04  4.2839054478005571e-04  -1.3312146416380776e-03  -7.2212865684016244e-05  1.3994030220497290e-04  5.2910100780142363e-05  2.9443079115957225e-04  9.4063349161429950e-05  -4.7124836415825745e-06  7.3894421533688212e-05  1.4264538986346182e-05  3.7644862555270143e-05  -1.2136840902869371e-05  -3.9284548339757069e-05  -7.3042236852553842e-05  -5.2592958200899323e-05  5.9592634661847010e-05  3.6010572481460921e-05  1.9555406661173997e-06  5.3317467424178042e-05  1.3158746026080182e-05  -1.7656707544171137e-04  -1.8886074470631551e-05  -8.1809839445878439e-05  -2.4799627882901289e-05  -2.0525384728540076e-05  1.6391809431031956e-05  1.5038345737341423e-04  -1.2082905472495486e-04  2.6422961845138911e-05  7.2123718063020327e-06  1.8865866474207088e-05  -1.4971789549771258e-04  1.6376643019437345e-04  -7.4089078215754364e-05  3.4473685448774407e-05  9.5327107678724123e-05  5.2130486241839419e-05  -1.1286224925373196e-04  1.4709004287398196e-06  -3.1395004947875734e-05  -9.6348503932786084e-06  1.8110522324063458e-05  2.6738924061605152e-05  2.3163486926628640e-06  -4.9349780946250041e-06  -3.6869857285190071e-06  -4.3585449990746668e-05  -3.8533550974050887e-05  5.9360573846322942e-06  9.4332325907403614e-06  -4.5368488054437979e-05  9.0744342889841192e-05  -1.3237814458250084e-04  -2.9490786952632102e-04  3.2985701537855042e-06  -2.1564096983185929e-05  1.0667483443364583e-05  7.9914305004631531e-05  6.4622142250072201e-05  -5.8299491042705119e-06  2.1802996482537689e-05  -3.9748114176912641e-05  8.8772890348824435e-05  1.7954587574825547e-05  -3.7856702517714220e-05  4.8806532086366463e-05  -2.5176804076445405e-05  5.0522399771839139e-06  -7.0313311053121354e-06  -3.6913325718952248e-05  5.4816889984517062e-06  -2.4263783551947424e-05  -2.5222711187707314e-04  8.5747206048770942e-06  1.3042109608200786e-05  -8.9766306038857122e-07  2.2179467504312175e-04  -1.7163176457811834e-04  -1.8510873815261455e-05  -6.2644616302481737e-05  5.0614509391761621e-05  3.4180220804791916e-04  2.7438420306674997e-05  1.4072753903130796e-05  -3.2559901462460686e-05  -2.6017551738673373e-05  -1.3491416801985275e-04  2.4353940171765214e-05  4.1607720684178767e-05  -4.9901086554624463e-04  3.7248473445385618e-05  -3.0005463896420865e-05  -4.6442455633249275e-06  1.4820333135820202e-04  2.6315624595306009e-05  -7.7168261381227484e-05  -1.9306135029152950e-05  7.4271608235408919e-05  2.8313508532609666e-05  9.4786380399851323e-04  3.6312685151550465e-05  -1.2767921830326694e-04  -1.4058221228069387e-05  1.0198222671556655e-05  2.6063709807103879e-05  1.3425082330806307e-04  4.0387148513537221e-05  -4.7849589196368448e-06  1.3237063357933292e-05  5.5789729688368301e-06  1.8776900441919760e-04  -1.1733550714525841e-04  -5.8170146826749998e-06  -9.6122068288079221e-04  -8.2233011839553586e-05  -1.8954114772011904e-05  2.4493008538609216e-05  7.2030776474343156e-05  7.1672830680116856e-05  -1.2907600435827410e-05  -2.3755179562922463e-04  -5.2273165526138592e-05  -9.4481089838985540e-06  5.5067494757563579e-05  -1.7132869828196498e-05  8.1435080404946897e-06  2.2071428473679100e-05  4.0377853122875565e-06  1.8984897764225201e-05  6.6417060442957176e-06  -2.5561095349495922e-05  -2.0596133708330322e-04  -7.8569845153974162e-05  6.7440188751773864e-07  1.0276988557108470e-04  9.2657241037996262e-05  -1.0127645222184324e-04  -7.2186800005810976e-05  2.5282566731034195e-04  3.6235213173993148e-05  2.1720729908973149e-04  1.8985638358799353e-04  -1.6015152625440304e-04  -4.0505672080795103e-04  1.4254673309447476e-04  -1.4525917761027962e-05  -1.5246219474095404e-04  -3.5014994117362732e-06  -1.7336235505857565e-04  1.6612155593912916e-05  6.1570135823094627e-06  2.3003575517432606e-05  -3.0530814761051121e-05  -8.2958862655266361e-06  -1.1505961451720431e-05  1.2148921191023299e-04  -1.6796157933200639e-04  -2.5456162286149120e-05  4.7944933395225483e-06  2.0295284400017281e-05  -5.6702447369134095e-05  2.9750356208665874e-05  1.1092478691123372e-04  -2.9681554742747509e-05  7.6323806217452838e-06  5.0392167555870791e-05  -1.6545468872372617e-05  3.3254293342083992e-05  2.9679156322085229e-05  -1.7358530296565932e-05  -2.2609680074887440e-05  -2.5574882442750975e-05  5.6795140794709761e-06  1.2697395571904065e-05  2.3737243659140976e-06  6.4304372996368058e-05  1.8140703448162275e-05  7.7897794620494936e-06  7.0144347010860718e-06  1.0340155052129956e-04  8.1027679624056409e-06  -4.7540489997597006e-06  -4.0891474921506891e-05  1.6075507616522900e-06  -3.9800748972098024e-05  6.2388908906108915e-06  -5.1061677954712168e-06  1.0711280489145176e-05  -5.8939192327930387e-06  -1.5302256880027944e-05  -2.7219786456259354e-05  1.4242137447602423e-05  6.3395613551614520e-06  2.1252612234234896e-06  3.4503903365191514e-05  -4.3325079767958985e-05  3.7967623365692511e-05  4.1926926489018898e-05  1.7663437751357854e-05  -6.1603050943506905e-06  8.5442399414992359e-05  -4.1040598850851767e-05  -3.6373323362199836e-05  -1.6566123817392774e-04  -6.5952603558894846e-07  8.9411705065763005e-06  -4.2541742816296061e-05  -4.6889394159208234e-05  4.6543086082671615e-05  2.7792319476302625e-05  7.5213412905464404e-05  1.1473845303164898e-04  1.5246399993686061e-04  8.9981873122017684e-05  5.2510467254817646e-06  -9.1256049369781617e-06  -4.6787473323903432e-05  6.0098236900301655e-05  -3.3514228714810909e-05  1.1489817256826303e-04  6.6421268792579049e-05  -9.7635333601609847e-05  2.2555854171034166e-05  -2.1960666147666332e-05  -1.1949649837110590e-05  -6.7092052310156560e-05  -2.8815275983961237e-05  -3.1223232079282925e-05  1.5924687264359476e-06  2.8915611433514469e-05  -6.5807860763890871e-05  -4.1999617203931724e-05  -1.4887891505774244e-05  -5.1529495691921233e-05  5.4189586239803812e-05  1.2863691131118226e-04  3.4876056490384957e-05  -1.4600325143352025e-05  -5.3882215621113761e-05  -4.5438274868983254e-05  4.4130525957644502e-05  7.4019323810798598e-06  6.4918150248216664e-05  -4.0507499973002171e-05  2.4479657146582166e-05  1.3913617512081395e-04  -1.0432220451810519e-04  1.1800935653891966e-05  1.8349534961264858e-04  9.7273620509965840e-05  3.2009221232741075e-05  7.0726707873871499e-05  -1.7603115614476791e-05  5.1167633802978362e-05  3.0003639569497000e-05  -1.2270992278448274e-05  -6.1285372788482341e-05  6.9951476362150594e-05  6.0304469441046254e-05  -7.4876189947567514e-05  2.4844311205657074e-05  -7.6616444872671334e-05  2.8992159387213239e-05  -3.4445569835439285e-05  6.3871838881697464e-05  -1.9724399117681870e-05  9.9991210524408330e-05  -6.2848541882190207e-05  -4.9526800657394090e-05  -5.5010487333170024e-05  5.1928308512650432e-05  -3.5496296691819923e-05  7.5210356799136846e-05  7.5034793182369002e-05  -2.3688768669996947e-05  1.7899866912121017e-05  -4.7492457648503843e-05  -2.5918733234119351e-05  -6.1908080018573613e-05  2.8376556375288477e-04  -5.1504887914869376e-05  1.6155500414573162e-05  -1.4810598314754563e-05  1.8950300601468430e-05  1.5522314551185586e-05  -2.0572517291383606e-05  -2.4976521058642989e-05  1.5167385161409005e-05  -7.1908248239109380e-05  1.7661572534069842e-04  -2.1699420494720678e-05  1.1723539412288751e-05  1.8897018213194850e-05  1.5075179049478199e-04  5.7311640441769551e-05  -6.2030856816044478e-06  1.2295837524940300e-05  -1.5255759606622552e-05  1.3572200047351868e-05  -1.0556406839217331e-05  -1.6545570492302895e-04  2.4640164272939899e-04  3.9913517113458684e-05  -8.2338587401081846e-06  -2.0818305490917681e-05  -1.4201284424830802e-04  -5.8535335543740567e-05  -1.8266654862972514e-06  8.2668368030626220e-06  2.0735047358463539e-05  -1.5520220684313120e-04  -1.0780298774610387e-04  -8.3156570423037237e-06  -2.2976157560950372e-05  6.9177342199740500e-05  2.6058793394598867e-05  1.5330394565965374e-05  -7.8055192308639266e-05  -2.4702893203728507e-04  6.9620479027520303e-07  -2.9742007812852152e-05  6.1280656573658990e-05  -3.8393896815280246e-07  -2.0610978443644560e-04  3.2072395415045103e-06  1.9009920196523760e-05  1.5226001777294618e-05  -1.6370059304806483e-04  -5.3315979657199005e-05  -1.5859380749304123e-05  -4.9147535380482340e-06  -4.6748132051162445e-05  2.6165394990141321e-05  -1.9233128431572826e-06  -1.7985711231371928e-05  -9.0525186536508169e-05  2.3302256302082566e-05  2.2355347567451079e-05  -1.5478545247613854e-04  -3.5573976166526640e-05  -4.0383716650727378e-05  2.1283169304720294e-05  1.1942380062838482e-05  -6.5992058668849795e-05  -4.5797260182977772e-05  -1.7064216559864323e-04  -1.8649684216181774e-04  -1.0016296168406174e-05  -4.0929649190693784e-05  4.3910795008795156e-05  -3.0337164907689945e-05  -8.1977814053230608e-06  1.5781610789370785e-05  1.9512058722258093e-05  2.1628508391791261e-04  5.3114759875126810e-05  -6.7557030583894145e-05  -8.0456165585415066e-05  2.0089471253208694e-05  -1.1616153645917457e-04  4.0911516943111908e-05  1.4313178734611003e-04  8.1200146222425764e-05  -5.3932486545997628e-05  6.9903570863470113e-05  -5.5492490318817574e-05  -4.0350592779414583e-05  -2.1650053278038809e-04  -4.8686072962276142e-05  -4.1436734909839380e-06  -5.4960845183178099e-06  -9.9523657810964895e-05  -7.3594423579918130e-05  -2.7547301370176914e-05  1.6247182895174983e-05  -3.7090325304718051e-05  5.7535831139557064e-05  -2.3260689321750722e-05  6.3711097012625716e-05  4.8043929304297008e-05  1.7881843271016628e-05  -4.0920207725328049e-05  9.5297217319416344e-06  2.2804410121209661e-05  -4.8128480178829489e-05  2.6165521844519045e-05  1.3740580543813915e-04  6.0541166817238993e-05  -1.0549820319911671e-05  6.4239688020072927e-05  -2.3027260946942672e-05  2.2225504233062501e-05  9.6339547583867857e-05  -7.9346161191999292e-05  3.7119967855097846e-05  -1.4552186228823282e-05  2.9104935190976811e-05  2.6020894734113804e-04  8.9178725427749533e-06  -1.3274181484391827e-04  3.2411443951764231e-05  8.2278979250361776e-05  -1.4646484916745199e-05  -5.2168168411741849e-06  -3.0317301456749691e-05  -4.6715091803202141e-05  -7.1430220404657658e-05  -3.4874906693231249e-05  5.0943644930849573e-05  -5.4204094289618937e-05  -5.4607870219552276e-06  4.9999479282103678e-06  -4.1530764873425823e-05  -2.7119805356225506e-04  -4.2434634626126133e-05  1.0041082465874635e-05  -3.6088762252010037e-05  8.8741716070191271e-05  1.2763228972353642e-04  5.8208062411742958e-05  9.2273484125451088e-05  2.1116132034903761e-05  -3.7830735549408839e-05  -3.5768105264516369e-05  8.3497377578786573e-05  -7.4261911868856790e-05  4.2808111770468092e-05  3.1302541888820314e-05  -3.4093813193630422e-05  -1.9644105269592789e-04  -3.4551152234740020e-05  -1.0381488180321929e-04  4.7879940759844754e-05  -3.1418032136452966e-05  -3.2363417617993621e-05  -6.2637205878630770e-05  -6.3720644915192754e-07  -4.8648567045355501e-05  -2.6809014352888686e-05  7.9108375379578850e-05  6.6150976601367153e-05  -1.4311893571304289e-06  2.5848868671065977e-06  -2.9264310913969830e-06  4.0856337998025947e-05  1.1257290109326709e-05  2.1253010234898627e-05  1.3108748413806957e-05  7.2412466376072463e-06  5.5781699469049722e-04  -2.7572819098717696e-04  -5.5544796111093009e-06  2.9383940041893326e-05  7.6056025158167953e-05  3.1178856622320480e-05  -3.9043707629234023e-05  1.1928980476388573e-05  7.4433895108120437e-06  4.8713142422085355e-05  3.2200410558310849e-05  -3.4480075200415612e-05  2.2973464241000363e-05  4.7867934444092736e-04  -4.7071789536274688e-05  -6.9128901265647094e-05  -1.8515223233573040e-05  -3.9252404372811599e-05  -4.6663585890983593e-05  -2.2452843948741747e-05  -1.7978881140547204e-05  -1.8027124106179362e-05  -1.8424723299939195e-06  -3.3075229138178413e-06  9.3911178158847324e-06  -7.3459854392908913e-06  -2.9820863325262119e-05  1.2590483639929496e-04  -9.6045499375992075e-06  -2.8935308849237099e-05  2.1702301109485233e-04  2.9661921529150155e-05  -1.5838554468826352e-04  -2.2204190807363850e-04  -1.4219553169367302e-05  2.9173759369786954e-05  -1.4172626768899664e-05  6.3748892925061596e-05  -7.7990001419678628e-05  -4.6050211060375938e-05  -3.1953691941839652e-05  3.8173147986254684e-04  4.0044662392221204e-05  -3.0290006813849035e-05  -6.2287246737504352e-05  1.4437714894124241e-05  2.1936535104263289e-05  3.9791072474459531e-05  -4.4373623048683880e-06  1.2573101108447429e-04  -1.7119604785984940e-05  -2.9161753893337939e-05  -1.9959589667120040e-05  4.8773273342899681e-05  -3.1332260409316382e-05  5.8479203493248179e-05  -3.6817956201949980e-05  -1.8382083514329554e-05  -3.1823584480621457e-05  -1.2973000199598772e-05  -3.5881551417167635e-06  2.1431725054687288e-05  -2.7961410437771967e-05  -2.2859366360169523e-05  5.0296194093668573e-06  -1.4675409891711140e-05  2.2197530674225843e-04  2.7305656170187569e-05  2.8756396760204407e-05  1.3178135443255473e-05  9.7837225714597676e-06  6.9281100883487260e-06  2.6650999400527796e-05  4.2928660774748814e-05  9.7119836286995982e-06  -1.3563265225868744e-04  -3.8705884003576970e-06  6.0197639783356589e-05  -7.3397411848063983e-05  -3.2468630651567767e-05  -1.1097479503938782e-04  -4.5824263016310019e-05  1.7393978456301500e-05  4.1169945521030183e-05  4.6292955036930747e-05  -3.7421347754280843e-05  -1.8790152445079296e-04  6.5314043712034784e-05  -3.5235131902238831e-06  -6.6518657862485355e-05  3.1727220343658666e-05  -4.2193774489791304e-06  -5.5183537124547527e-05  -2.5914687702988156e-05  8.5634353813229014e-05  -8.3636267843968803e-06  -1.7783220369237370e-05  -2.4301431365944795e-05  -1.4890242924790020e-05  -2.1323317329219504e-05  4.8615037669815741e-05  -3.5191475969677662e-05  6.8922818334469255e-05  1.5654601877864256e-05  2.0153934086772945e-05  -9.3158730897920154e-05  3.4315513943232515e-06  -6.5836112078972308e-05  -1.9205707043649313e-05  -7.8855301989631991e-06  1.5330604062589162e-04  4.2176159898156189e-05  -1.3296663802560895e-05  -1.2342201842279166e-05  -5.5549835069477481e-05  2.5974747562272491e-05  1.4760435458553851e-06  1.3348727309230347e-05  1.0190503839285760e-05  3.7767366740464053e-05  2.1622285584583837e-03  -1.7991192347482383e-03  -1.9573303829031860e-05  -1.6555557345128850e-04  -3.0371214013417676e-05  1.9173724454213425e-06  2.2953172555588848e-05  -7.5350414553998610e-04  3.5774860560302272e-05  -1.1452105749563322e-04  6.9733934225254832e-05  1.8807379756374081e-05  4.1492624117558336e-05  -9.7551434805549789e-05  4.2567780210247836e-05  2.8279322177195956e-04  1.2423828281677975e-04  1.5637163391672915e-04  6.4824629430836731e-05  6.5733702588998782e-05  1.2305936525478016e-04  -5.2703932307437753e-05  3.8796566582683608e-05  3.9160829599303693e-05  -2.3148736331570735e-05  -3.2970401472840444e-05  7.2771515550402587e-06  2.4002854577168041e-05  -1.5545205190865829e-05  3.7543532113015308e-05  -2.2781211656100372e-06  -1.3485070057801186e-05  -1.5267750550336845e-05  5.4105432718223530e-06  1.6674033154853893e-05  -1.1660372800460860e-04  5.1306567754190293e-05  1.4550936279744572e-05  1.6034677257275410e-05  -1.3112592025695160e-06  1.6283579992011854e-04  3.1848837056782173e-04  -1.2591190199441576e-06  2.5218742398918865e-06  -1.5697288428471149e-05  3.5289079462336559e-05  4.8358548488939109e-05  2.1652746515149639e-05  3.4640414567890516e-04  5.1753715508645663e-05  -1.7997008641833380e-06  -2.0050753854718612e-04  8.9828032659904073e-05  3.4342931407436364e-05  -4.6918121064738049e-05  -6.1808362300649824e-06  -9.6000233409127358e-04  1.8643321945398022e-04  6.1464899002263741e-04  2.1354967045336519e-04  -4.8221021347438667e-04  7.0761444238824221e-04  -5.1013635539012267e-05  -2.9029097925072924e-04  8.5921595351661211e-04  1.4937357096620401e-04  1.4090491576071687e-04  3.6898884937167624e-04  1.4416286279237125e-04  5.5858870348831074e-04  -1.3715525807927222e-04  9.3469340214448175e-05  1.0399842832506962e-04  -1.8876607632291637e-04  -2.9654356842546476e-04  8.0497183308863665e-05  -1.7513948708065396e-04  -3.7614061483639286e-04  -1.3125947510943760e-04  -6.4489438785892764e-05  2.2084356639273253e-05  1.6216109192860529e-05  -7.4231693978489720e-05  -2.8540925746932350e-05  6.1205088891863848e-05  2.0985671932686115e-06  -2.5462864335729116e-05  -1.0760956466460946e-05  -1.7162754508284736e-04  -6.5784656872461771e-05  2.2137165907687076e-04  -2.6359326286728855e-04  -3.7408562152930310e-05  7.5766228697745440e-05  -7.1148345399476792e-05  -2.9966154056647554e-04  5.5578361212195411e-05  5.9948516519369420e-05  -1.2079111406515933e-04  6.8005700866400069e-05  -2.5426250317060381e-05  2.5186507555972019e-05  -2.7703182162462580e-05  -1.7040284761970273e-05  -5.0947474256653004e-05  3.3813642271531840e-05  -1.2554328094070369e-05  -3.2941245254769545e-05  5.6150343607141675e-07  -2.1210330467265330e-05  -1.5834159013647049e-05  -1.2433510465009980e-05  -4.3704367892547325e-05  6.3219369130028592e-05  7.9872344627833036e-05  -3.6135927370997749e-05  4.3265200445412696e-05  -2.8924675458777190e-06  3.0609354544610485e-05  1.3468422322502436e-05  -3.1420762870465014e-05  6.2899048365473866e-05  8.2492859836614813e-05  5.1398730857320688e-06  6.1655027919364400e-06  -2.6298032965836219e-05  -7.7250223460650883e-05  -1.8894205026089123e-05  1.6747006516678369e-05  -2.4262356923176992e-06  -3.0554674624118605e-05  -1.8607919821256061e-05  -1.8927052599955189e-04  -1.2204456416874158e-05  -8.5564869075488884e-05  -4.0724838746595305e-06  -5.4289185708354701e-05  2.0706658999027708e-05  1.9357684707210903e-05  2.2745071563383810e-05  3.3849946921463103e-05  1.3403317140944353e-04  -4.0938743482873970e-06  -2.3478449190615718e-05  6.4989719430964628e-05  -3.2776945178695360e-05  -5.7853530441851389e-05  2.2082051290840766e-05  -1.4945693295656260e-05  -1.6510677818537669e-05  -1.6973120358240435e-05  1.3504155150477608e-05  -5.0013568673797702e-06  -3.4440621373508524e-05  -5.0740987867833934e-05  6.1660416285356727e-06  4.6576512036975763e-05  -8.8568849886141836e-06  -1.6831446365637820e-05  -7.1046610877447096e-06  1.4569226943023436e-05  -5.6356596163102615e-05  2.4465339794963387e-05  3.9694554389465219e-05  1.6045962884182275e-05  6.8563624843322961e-06  -4.3983001528102347e-05  1.5702293715913465e-05  4.3277181490460619e-05  5.7419579286250003e-06  2.7855621245024086e-05  1.6951652103984070e-04  2.0604333038556017e-05  1.1689717951405175e-04  2.1190360446946649e-05  -1.4619095486625119e-05  2.1749495212779266e-05  -9.7937912158717721e-05  -2.7517842736602837e-05  -9.2395860796155776e-05  -3.0865861427213012e-05  4.5628126647077317e-05  2.8760878345440267e-05  1.6950010177381626e-04  1.0359633591602694e-04  2.0014484073933958e-05  -1.5539622344813055e-05  -1.4572552791444906e-04  5.9472479072211408e-05  6.3639543736733810e-06  -4.19891544116980