<?xml version="1.0"?>
<VTKFile type="UnstructuredGrid"  version="0.1"  >
<UnstructuredGrid>
<Piece  NumberOfPoints="1385" NumberOfCells="2640">
<Points>
<DataArray  type="Float64"  NumberOfComponents="3"  format="ascii">0 0 0  1 0 0  1 1 0  0 1 0  0.5 0 0  1 0.5 0  0.5 1 0  0 0.5 0  0.5 0.5 0  0 0.25 0  0.25 0 0  0.25 1 0  0 0.75 0  1 0.25 0  0.75 0 0  1 0.75 0  0.75 1 0  0.7083333333333333 0.2916666666666667 0  0.2916666666666666 0.7083333333333334 0  0.375 0.25 0  0.75 0.625 0  0.2569444444444444 0.4652777777777778 0  0.5366379310344828 0.7535919540229885 0  0.1875 0.1875 0  0.8125 0.8125 0  0.869047619047619 0.375 0  0.1450441919191919 0.6052714646464646 0  0.375 0.8690476190476191 0  0.5526960784313725 0.1825980392156862 0  0.8385416666666666 0.1614583333333334 0  0.1614583333333333 0.8385416666666667 0  0.6736111111111112 0.4652777777777778 0  0.1367521367521368 0.3477564102564102 0  0.6570970491253563 0.8648656830417855 0  0.5102479397556124 0.3386260301221938 0  0.3654513888888889 0.5737847222222222 0  0.6929750044954185 0.1362784921584263 0  0.388576102743835 0.411911725237599 0  0.6091269841269842 0.5942460317460317 0  0.875 0.6875 0  0.427278890279516 0.119889445139758 0  0.8544456845238095 0.5213913690476191 0  0.125 0 0  0 0.125 0  1 0.875 0  0.875 1 0  0.1280008648150532 0.4769292340226777 0  0.2695382451711197 0.3321750950221553 0  0.7031567235715964 0.7447810921428012 0  0.625 0 0  0.375 0 0  0.125 1 0  0.875 0 0  0 0.375 0  0 0.625 0  1 0.375 0  0.375 1 0  1 0.125 0  0 0.875 0  0.625 1 0  1 0.625 0  0.2979288363930608 0.1201429454643536 0  0.410919540229885 0.7484605911330049 0  0.5325041980395562 0.878905151526474 0  0.4831670727569156 0.6331060043826487 0  0.1735997378973042 0.7204747378973043 0  0.2534919507575758 0.5772372159090909 0  0.2633928571428572 0.8876488095238095 0  0.8199404761904761 0.2730654761904762 0  0.75830270586982 0.3919383189517417 0  0.5750282248382511 0.4237522353023667 0  0.6008360210023379 0.2794828358598495 0  0.08163442644334186 0.6821295860397322 0  0.08333333333333333 0.1875 0  0.2028380815996574 0.08844602719988583 0  0.2766521142611967 0.2325436572164097 0  0.90625 0.78125 0  0.890625 0.890625 0  0.7545696325008384 0.8973565441669461 0  0.5625 0.08086590340834317 0  0.09077380952380953 0.09077380952380952 0  0.4610923478694773 0.209034015149656 0  0.7542527598351648 0.5248380520595106 0  0.6459235536037465 0.3619913988405765 0  0.7560381768882634 0.20506142233852 0  0.07073252688172042 0.8125 0  0.0924753097241701 0.9078102849914793 0  0.9292674731182795 0.1875 0  0.9075246902758297 0.09218971500852073 0  0.8125 0.07073252688172045 0  0.2400955776842301 0.7869705776842302 0  0.9121050213379069 0.2781978201831695 0  0.7916878157143976 0.7239689078571988 0  0.9345238095238094 0.4375 0  0.4375 0.9345238095238095 0  0.3725616989755203 0.6651895248862173 0  0.06536271996350887 0.5625 0  0.9348362560379583 0.5625 0  0.456646798987055 0.8277247094351965 0  0.1875 0.9355758238725954 0  0.6169761231634859 0.6939779188977889 0  0.6226854751147515 0.7827911461419014 0  0.3305695598137626 0.7901697871282585 0  0.5865305325818898 0.5101085479043448 0  0.6622701297028378 0.2177663989757395 0  0.1354166666666667 0.2591702279202279 0  0 0.3125 0  0.2094429575680048 0.3936361846162499 0  0.836666296419157 0.607917407161686 0  0.6875 1 0  0.214261555450504 0.6492551722020035 0  0 0.4375 0  0.07731537126068377 0.40625 0  0.3427725432967068 0.4879566233699599 0  0.3550792513951871 0.3331953632609953 0  0.4462473953896857 0.2887834789342508 0  0.4747801464819794 0.417386052030127 0  0.8229836475148948 0.4443292349237342 0  0.7322605135514757 0.8199240278289671 0  0.6756431877205955 0.5468989748126787 0  0.1968419507215863 0.5194573482612496 0  0.3285590277777778 0.9345238095238095 0  0.8125 1 0  0.4198917601920009 0.5134893045331258 0  0.5232405503206691 0.2595791787880157 0  1 0.9375 0  0.1987510870015086 0.3025185951894431 0  0.5625 1 0  0.6005390654136388 0.9228110509230952 0  0.6411254848194414 0.07704872765442942 0  0.3357233162523242 0.1855113224530532 0  0.6730653396610877 0.6393887462324165 0  0.310966987234063 0.6240019765311626 0  0.7368737836204349 0.07457755202327881 0  0.6192316414418171 0.1485238406378594 0  0.5432429670607106 0.678552703844006 0  0.4754371679695679 0.7103946803120881 0  0.07501324890749672 0.3043839897335739 0  0.5358146975860403 0.5688321463205916 0  0.3115271739500156 0.3982137365971444 0  0.3625191397122174 0.0767854603650549 0  0.5024029442563831 0.1264128223758444 0  0.4375 0 0  0.4699946908887376 0.06379961173775725 0  0.9375 0.71875 0  0.9272105898044465 0.635671179608893 0  0.9375 1 0  0.6690971819568612 0.9331530898202766 0  0.1073454944778885 0.7499206387638554 0  0.8699082999280406 0.2232403652524313 0  0.5773118091863964 0.3548027349159383 0  0.1354166666666667 0.1428571428571428 0  0.3125 0 0  0.8241684193077341 0.9257452995055244 0  0.4352314948354036 0.3586940847489378 0  0.4351301473778832 0.5819726043539077 0  0.8073232928518163 0.3419398170341962 0  0.7775949246947366 0.1298519409204575 0  0.6875 0 0  0.7413513991851041 0.457933324954483 0  0.939453125 0.841796875 0  0.5630355154606987 0.8171875156478349 0  0.9345238095238095 0.3461466592368577 0  0.9375 0 0  1 0.0625 0  0.0625 1 0  0 0.9375 0  0.06552178593177167 0.4969053669623468 0  0.1424866619031703 0.4130277709291224 0  0.1275287182444726 0.5422946908002588 0  0.2637686595586339 0.06413888464529549 0  0.2524263535491086 0.1697437503243817 0  0.7367218397988525 0.6888573970660841 0  0.0625 0 0  0 0.0625 0  0.8463594539285995 0.7578283617857982 0  0.3128751192101563 0.2851997374369947 0  0.4015281788351144 0.1806421385113692 0  0.1910251795116588 0.4553332197174453 0  0.287797471442006 0.5222621440543902 0  0.3962628745986055 0.8097380085535307 0  0.3505895299554843 0.7304878890838692 0  0.5019151500495276 0.9356042615328103 0  0.9374389419410134 0.4999931039076005 0  0.3125 1 0  0.1875 1 0  1 0.5625 0  0.4375 1 0  1 0.3125 0  1 0.4375 0  0.8125 0 0  1 0.1875 0  0.5625 0 0  0.1875 0 0  0 0.1875 0  0 0.5625 0  0 0.6875 0  0 0.8125 0  1 0.6875 0  1 0.8125 0  0.8021696218581627 0.6612893947866073 0  0.06154922295426143 0.6239401126946708 0  0.9359375 0.9359375 0  0.4666158024849896 0.7691515918155014 0  0.2318201265217025 0.7064974250277525 0  0.1565954253579966 0.6635489312486841 0  0.1598132503680848 0.7787147500325552 0  0.3146529991605639 0.8510876378205265 0  0.1461873209418733 0.05982804528877814 0  0.06109554988524315 0.2446551776247686 0  0.8054950308560754 0.5564226538848541 0  0.470541749491976 0.8853316336952531 0  0.6948472567465137 0.4042308563372457 0  0.8802828472348889 0.4658893256343853 0  0.6788075634946739 0.7974194205806069 0  0.2155048659603867 0.2428201584940968 0  0.8131223143423806 0.2132171049028394 0  0.4330798005432235 0.6671274900735726 0  0.6015279126162613 0.2187368078743274 0  0.8061636571464289 0.8703766630361714 0  0.7008230445061776 0.3478568388444072 0  0.8638466246958771 0.3147095987735538 0  0.204801534004265 0.8789209409594009 0  0.2449006736431132 0.9424182882803838 0  0.7611268409371427 0.2643056884799992 0  0.7552800864046191 0.7678006649959446 0  0.5983639638906616 0.864113435029236 0  0.1956559506814437 0.577281203577426 0  0.3527670268164207 0.1320469097565204 0  0.7530364577483248 0.3262386077083089 0  0.4535919187979363 0.4690107087451527 0  0.8824869791666666 0.8336588541666666 0  0.8814453125 0.9451171875 0  0.5582987942628019 0.622421666543858 0  0.6817532446064828 0.6939001801354731 0  0.3830295138888889 0.9450968952922078 0  0.4140603937012541 0.05211333372716105 0  0.5535864501303013 0.3060591985391672 0  0.6560130086346878 0.2729726562211558 0  0.890203140221684 0.5948314305427268 0  0.7043857725999024 0.593980890020804 0  0.5105843922695152 0.8016828014338627 0  0.05365910753708378 0.7315110031682004 0  0.616904573672261 0.4621186633436136 0  0.5338511646455415 0.387875898899613 0  0.5231769258947843 0.4477682463140762 0  0.650302973237622 0.7370722302085519 0  0.3927483139621257 0.4662414504529014 0  0.8034595960585199 0.4972538342758211 0  0.7738337841682438 0.9496376207663251 0  0.7193737507158268 0.954685447650112 0  0.482525916480686 0.5528257169991676 0  0.2533501157346781 0.2809495420003238 0  0.3118487924482243 0.5702930126570319 0  0.6257598847669529 0.4104163315430518 0  0.1354166666666667 0.1955605158730158 0  0.04166666666666666 0.15625 0  0.3956448985530264 0.6174149462065157 0  0.8102897701818546 0.3938784238208349 0  0.2641154190013625 0.8344469561943118 0  0.642852220770013 0.5068794586563659 0  0.05271458179508221 0.355846947336007 0  0.7021551360070266 0.8921457280225779 0  0.5692125776683765 0.1328512638850284 0  0.5206162811937602 0.04865158770992991 0  0.6001838442201555 0.04540556991297563 0  0.2597716608242787 0.4118346398477178 0  0.4040584599473195 0.3179589136784675 0  0.1480337679295207 0.8941560631483065 0  0.1344356707112281 0.9466251177415842 0  0.7114696411829317 0.4983917389078826 0  0.7585704698442475 0.5751926345944629 0  0.2189131956390871 0.04022068508159698 0  0.2476935455192043 0.1123642267635843 0  0.185995005654517 0.1365524537205238 0  0.6223414373308711 0.643380839165121 0  0.5732602596637543 0.7190051747306219 0  0.268358222364537 0.6586246524467934 0  0.3265879848129173 0.2369791782191225 0  0.1267095595787346 0.7034787238999181 0  0.1115202922226038 0.6421997933884982 0  0.3128688392940203 0.07260997451790079 0  0.550724900485678 0.9253360991633187 0  0.7142608810459105 0.2384904702214873 0  0.7045869185243887 0.1871826897887429 0  0.890625 0.734375 0  0.953125 0.765625 0  0.2111812642821677 0.8286209446459138 0  0.9590293078204457 0.09375 0  0.953431269039847 0.1435719386408004 0  0.04097069217955424 0.90625 0  0.04656873096015299 0.8564280613591996 0  0.1078743037981226 0.8541621766048062 0  0.8921256962018773 0.1458378233951939 0  0.8521576979194619 0.1084496634207678 0  0.8655663982740958 0.05464346096571447 0  0.04005659640905543 0.09375 0  0.1001448316533417 0.04246776244228261 
[...]
<PointData  Scalars="f_8394-2"> 
<DataArray  type="Float64"  Name="f_8394-2"  format="ascii">-3.1965291987622621e-04  9.6803508694714253e-04  -6.7770936466238658e-05  -5.2274212706126507e-03  5.7450843654693071e-04  5.6729415744634538e-05  -4.3908011496273294e-05  -5.3552017796452945e-04  -4.1062158828433737e-05  -2.8391671024877976e-04  -4.2326120745390168e-04  -1.0638706170602029e-04  -1.3090588688805503e-03  1.1104851976153425e-04  2.9922073822665114e-04  4.3368279964593997e-05  -8.6578205741391802e-05  1.8768992352079068e-05  2.9210554598764286e-05  -4.4241296535560564e-05  2.4829263668167228e-05  5.5121774139950260e-05  5.7477736269074563e-05  2.9866256523501539e-05  1.6353681518291062e-05  -9.0934758655914105e-06  -6.0595611772323879e-05  -6.0158583988506969e-05  7.2238089481870503e-05  7.9797327334625180e-05  5.4877309899343251e-05  -5.8782511319138784e-05  -1.5084021026255068e-04  8.3880644610245190e-06  -8.2051161942684717e-05  9.4019579246431777e-06  8.2209854624874858e-06  9.9742742445848854e-05  -4.2806505973381760e-05  -4.9721706837491343e-05  9.7546285539866482e-05  -1.9277856984851130e-05  -3.5330095739507324e-04  -1.3589551091344192e-03  1.4268753150449951e-05  2.0354627641826797e-04  -6.0239307133005349e-06  5.5334488591454041e-05  3.4541574407019128e-05  6.6683146841912949e-05  4.2606097799722701e-04  5.7474570223485657e-05  2.1948896555880337e-04  4.1774426355021508e-04  -1.3003733467512153e-03  -7.4856177137641079e-05  1.4442874280679274e-04  4.7861336632444665e-05  2.6037788074350743e-04  8.0786513818392289e-05  -1.5364122155804278e-06  6.9631693950098433e-05  1.4363800371882995e-05  3.6676945449470726e-05  -1.2088113946954736e-05  -3.9677666271176116e-05  -7.2886573566723122e-05  -5.1028713041566784e-05  5.9112943627515508e-05  3.6064604519825120e-05  1.7359575845138251e-06  5.3243528449305235e-05  1.2064357086243138e-05  -1.6587323192075417e-04  -2.8653342538182875e-05  -8.2794444565954749e-05  -1.7879757549509088e-05  -2.1490452538425721e-05  1.1030484584334994e-05  1.4965554426682104e-04  -1.2292665401296798e-04  2.5326688634311929e-05  7.6877912330770056e-06  1.8805902215056723e-05  -1.5032489782161617e-04  1.6102134618098214e-04  -7.3146237757572589e-05  3.1698228899205661e-05  9.4187736977129684e-05  5.7112750656843872e-05  -1.1271329156947857e-04  -4.0497878032942576e-07  -3.0053038985424018e-05  -9.6352515778467711e-06  1.9977376350860746e-05  2.7012738186828072e-05  1.8053307967207670e-06  -3.7368704258174875e-06  -3.5816335954100039e-06  -3.9951134186753130e-05  -3.9081382542068390e-05  4.8325071644200979e-06  9.9079152732287915e-06  -4.5521273664595983e-05  9.0787453075745348e-05  -1.2779141047896590e-04  -2.8983270720811223e-04  4.6838421921073281e-06  -1.9757232622407889e-05  7.1465412173394315e-06  8.0455654373351026e-05  7.5015332745077666e-05  -1.5266675904269216e-06  2.2049361391641664e-05  -3.9834766315946766e-05  8.8394748792188025e-05  1.7949187711387900e-05  -3.7785519689620058e-05  4.7134771851193609e-05  -2.4863754142440379e-05  5.5433949738774410e-06  -5.5313313824659482e-06  -4.6282210018739794e-05  5.5052632515085512e-06  -2.5182563783218116e-05  -2.0641295786417361e-04  1.0540465695631903e-05  1.0864320456380474e-05  -4.1972569855825941e-06  2.2248215307769546e-04  -1.7448581942437988e-04  -1.8317589972665960e-05  -6.2488164394458470e-05  5.2851545754172404e-05  3.4352665217674547e-04  2.7459894951532423e-05  1.4166000980900306e-05  -2.7126836399970697e-05  -2.6040807589173247e-05  -1.3510712150239357e-04  2.0401508854722973e-05  3.9722973392291483e-05  -4.8041796861019733e-04  3.4297668688614287e-05  -2.1883654783964239e-05  -9.1222091301962012e-07  1.0196303042065861e-04  2.1796616066519918e-05  -7.9325701547799769e-05  -2.0685053921531099e-05  7.4226682249521516e-05  2.9594508711735813e-05  9.2303278969095895e-04  2.8018052548727561e-05  -1.2839998952175245e-04  -1.4070336228275049e-05  9.7347276919545815e-06  2.7653143921750502e-05  1.3892867772599779e-04  4.0704099519608349e-05  5.7389347056175059e-06  1.2261290532031481e-05  4.1786076022218154e-06  1.9153877702484599e-04  -1.3146549963635509e-04  6.1724657059617655e-06  -9.4408898834222918e-04  -8.5071349271918962e-05  -1.6787404420527784e-05  2.4926472870906076e-05  6.5180221285062427e-05  6.9293818687591409e-05  -1.2318669652475349e-05  -3.1573529488878352e-04  1.9555207977115783e-05  -6.4228414907701411e-06  5.4932284379767451e-05  -1.9167120498249299e-05  9.1245696683201941e-06  2.2737380750706750e-05  4.4802531172538467e-06  1.9306336206821150e-05  6.5700335417715879e-06  -2.4729896964107725e-05  -2.0819668202054622e-04  -6.9717517348359041e-05  -3.2804758596464983e-07  1.0966396188146198e-04  8.8495408394596202e-05  -1.0339971138832623e-04  -5.2409599160586399e-05  2.4613620331693516e-04  5.0689894733782888e-05  1.8206915119899954e-04  1.9879650857489075e-04  -1.4797547128423891e-04  -4.1549720250122593e-04  1.3314207811769484e-04  -4.4194335799591102e-06  -1.2694642401705342e-04  -1.6619054766366830e-06  -1.7014887494800195e-04  1.6603390165677385e-05  6.2365378666242136e-06  2.3248128766849859e-05  -3.0595729413759835e-05  -8.9629832167502650e-06  -1.0338442403867561e-05  1.0299817391465062e-04  -1.5744331779952219e-04  -2.4522647421718009e-05  5.1137488102589368e-06  2.0329930736384805e-05  -5.6494292515570141e-05  2.8432140582114904e-05  1.1219247246630260e-04  -3.0129651107961715e-05  7.8718073461861913e-06  4.9947935887014392e-05  -1.9892158339480120e-05  3.3229661073659908e-05  2.8788503867017384e-05  -1.5770409055906657e-05  -2.0255746524796131e-05  -2.5848413328368934e-05  5.6587375872811402e-06  1.0643655540777529e-05  2.6562774307916759e-06  6.1205678610677709e-05  1.7945279774727299e-05  7.8108675301883164e-06  1.0538317415686632e-05  9.0091129388952923e-05  8.1110025656786697e-06  -4.7168216464528224e-06  -3.8889027809806852e-05  -1.2147611777518859e-07  -4.0406461237129178e-05  6.0877404186252052e-06  -2.9371176979354335e-06  1.1287483671819205e-05  -6.3176703834754459e-06  -1.9415266258469767e-05  -2.7438671593574007e-05  1.4045172043163233e-05  6.2865104477395463e-06  1.5638957969045403e-06  3.4739400784532800e-05  -4.2923237211684149e-05  2.8438112641348012e-05  3.5078139959118417e-05  1.7844346125536599e-05  -5.8249282277423896e-06  8.6378553212374936e-05  -4.1306476995317933e-05  -3.1763016362295986e-05  -1.4232740276944164e-04  -3.6583471781040343e-07  8.9883241982655888e-06  -4.1649897104338820e-05  -4.6894570936433217e-05  4.9535846708959665e-05  2.3700340426665346e-05  7.4672840147654347e-05  1.1154780369060554e-04  1.5170389449935357e-04  9.1220837992264255e-05  4.9718777083760799e-06  -7.3378919537935221e-06  -4.1560292899155954e-05  6.0638349172534092e-05  -3.2712833363402193e-05  1.0244140858747771e-04  6.0859419598229339e-05  -1.0207753596440612e-04  2.2635293811709567e-05  -2.2423864407699514e-05  -1.1830867134638225e-05  -6.8280438047076480e-05  -3.0059346323045530e-05  -3.0609128329715247e-05  -4.9600969715430560e-06  2.7195871586219775e-05  -6.6108576893650239e-05  -4.2022939677661866e-05  -9.4305726908059406e-06  -4.0586108713936861e-05  5.5108589909541593e-05  1.2327822356453285e-04  3.0644089862842617e-05  -1.8275245347296997e-05  -5.9030027328193374e-05  -4.6528218915584078e-05  4.2817132342158791e-05  8.7202160376697138e-06  6.8850687420145851e-05  -1.4284011113481582e-05  -1.6419592151471466e-06  1.3702937765813880e-04  -9.7627752511356253e-05  1.2785471171618449e-05  1.8358526528951206e-04  9.8353513604260059e-05  3.0795373275966288e-05  6.9094209050339999e-05  -1.9064934515847690e-05  4.9775594649777868e-05  3.0370309644099422e-05  -1.2087874603399675e-05  -5.1605824172595566e-05  6.7044819953946622e-05  6.5301114847516524e-05  -7.9637808119946730e-05  2.2605023798876370e-05  -6.4215074570337814e-05  2.9043913513389878e-05  -3.4137911546796231e-05  6.3692416480043174e-05  -1.6839324670901433e-05  1.0052235796391510e-04  -6.2976192749665582e-05  -4.9189471139964112e-05  -5.3169304253887708e-05  5.2229565932880397e-05  -3.5172985545600866e-05  7.4171009647079405e-05  6.9344960842602902e-05  -2.4142266074823988e-05  1.7534297661208810e-05  -4.5971085558438492e-05  -2.6859984422581092e-05  -5.4612212804654938e-05  2.8463545952455978e-04  -5.1099692334618651e-05  1.8874922441874694e-05  -1.3819390050418169e-05  1.8220743520316867e-05  1.6138861000588504e-05  -2.0396846003317832e-05  -2.4231270815558390e-05  1.7020470438045551e-05  -7.0703349615601908e-05  1.6792508411553393e-04  -2.0232878074177271e-05  1.2812513299505905e-05  1.9071260240276486e-05  1.5165739647850788e-04  5.7188987330859264e-05  -9.1052203700615154e-06  1.4127713852548820e-05  -9.5072712545887257e-06  1.1829697745942689e-05  -1.0688156907976124e-05  -1.6460446044379949e-04  2.4784183873778945e-04  4.2954893635380398e-05  -4.0849278887280708e-07  -1.6511498086095540e-05  -1.4180709812919550e-04  -5.9989252083020952e-05  -1.5478710817665822e-06  9.7387986283127385e-06  1.9530067531974812e-05  -1.4990931416299097e-04  -1.0584406579801223e-04  -6.9033748066172085e-06  -2.1692993145064480e-05  6.8610802024264976e-05  1.2501756256479151e-05  1.2962306234372911e-05  -7.8283897058639213e-05  -2.4085995393374672e-04  -5.7097509796438089e-07  -3.0009792223368389e-05  6.1387837001734361e-05  -8.0542741265272937e-06  -2.0695860400337773e-04  -1.3997718439900796e-06  1.9754075588673454e-05  1.5123069460410640e-05  -1.6509356784777230e-04  -5.3747958652549540e-05  -1.6300150263095122e-05  -4.3625865810435501e-06  -4.6887297345152312e-05  2.6347830010573167e-05  -2.7337224093666078e-06  -1.7809798258487450e-05  -9.2984277287786973e-05  2.2355243206680759e-05  2.1347361823543773e-05  -1.5604161757358764e-04  -3.4497767525603327e-05  -3.7076468435775028e-05  2.1379464567959825e-05  1.5623889047406352e-05  -6.6107547075247539e-05  -4.0372098823239176e-05  -1.5311659607763505e-04  -1.7928855860040277e-04  -9.9248608235550958e-06  -4.1122022923487981e-05  4.3971628337365126e-05  -2.9971014590466552e-05  -1.2883442162460107e-05  1.6245245588553675e-05  2.0631806958731508e-05  2.1135692031938187e-04  5.3305841110645115e-05  -6.7492093834238526e-05  -8.1505910882953537e-05  2.0830451615756475e-05  -1.1425042698810201e-04  4.1219780873978963e-05  1.4503772161161778e-04  8.0528935504469747e-05  -4.7187965415150763e-05  7.0532406580590520e-05  -5.5511721984500733e-05  -4.0213822691091774e-05  -2.1773993978005195e-04  -4.9784645821285166e-05  -3.7367064779031911e-06  -8.6790277532764678e-06  -9.9287664008317907e-05  -7.3579089170853733e-05  -2.7409191330155446e-05  1.5598027671101286e-05  -3.6698988722065219e-05  5.6792021072602736e-05  -2.4192192103598235e-05  5.3692469353309216e-05  4.6948569603611313e-05  1.7812543212196790e-05  -3.9407880765363438e-05  1.0915101057731198e-05  2.0854795365571135e-05  -4.7554010904707332e-05  2.6453776432554168e-05  1.2791481290011229e-04  5.8689936518735710e-05  -1.0789977333295027e-05  5.9838938871593946e-05  -2.3237095371494107e-05  2.3471041446259025e-05  7.4724779301996156e-05  -7.9182661077749361e-05  3.7158194274602399e-05  -1.5551443739016093e-05  2.5999386857672598e-05  2.5817228826110865e-04  8.8428577970796082e-06  -1.2855351200959447e-04  3.0259381571380832e-05  8.4714150063732507e-05  -3.7857149503861198e-06  -6.1413415247046910e-06  -2.7975053188758586e-05  -4.3692782859046999e-05  -7.1911854644140475e-05  -3.0833291839007504e-05  5.0910330976489460e-05  -5.4926839230097738e-05  -4.9463605540978133e-06  6.4655096044191160e-06  -3.9565329227475453e-05  -2.4883796366777900e-04  -3.2996477248556382e-05  9.6706762662742274e-06  -3.3110793577075208e-05  8.7355596193733914e-05  1.2473933145932818e-04  5.6153336646073827e-05  9.1139971831778364e-05  2.0925012133164323e-05  -3.8112269431028490e-05  -3.6073112850313836e-05  6.6081367424163665e-05  -6.6063152182161696e-05  3.6236205575667712e-05  2.4522707441283848e-05  -3.1996741388890143e-05  -1.9683156853768643e-04  -3.4632671313553117e-05  -1.0525408887268285e-04  4.5550036539427790e-05  -3.1168843760814829e-05  -3.5012027706416991e-05  -6.1597007132678779e-05  -2.8247971864615650e-07  -4.8616246960950940e-05  -2.4509854789727883e-05  7.9229841698393312e-05  6.5207154641480774e-05  9.0397359622569318e-07  2.9536066200576934e-06  -6.5943573189090073e-06  3.7887291246354187e-05  1.2182925671183600e-05  2.0956535712815990e-05  1.3282852710171905e-05  7.2029531178119679e-06  5.1177512081735635e-04  -2.8004174577205698e-04  -9.2693372327659455e-06  3.2097071127770470e-05  7.2185479189632365e-05  2.9065820235486222e-05  -4.0114700482978712e-05  1.1852102424248048e-05  -3.9481673072599805e-06  4.6335270903821913e-05  3.1405300341867663e-05  -3.3229729642089101e-05  2.3245242454464537e-05  4.6198635519895803e-04  -4.7147281579536076e-05  -6.3591156125812550e-05  -1.4967989548469166e-05  -3.9813896290316203e-05  -5.1227963644857320e-05  -2.2485507381549189e-05  -1.9624463710114402e-05  -1.6614770122519088e-05  -1.4757974401435309e-06  -3.1996606948587376e-06  9.4084164513277163e-06  -6.2442823414361659e-06  -2.9757069600456912e-05  1.2083455863776571e-04  -6.0081371183227334e-06  -2.9825493513864774e-05  2.1133030959877844e-04  2.8739347649280437e-05  -1.6213280162894511e-04  -2.2356056145741751e-04  -1.4611193725778278e-05  2.8686098418759629e-05  -1.4437630398184487e-05  6.4128806426002805e-05  -6.7715420098563343e-05  -3.8288986301079441e-05  -2.3786130789655984e-05  3.7785881361912250e-04  4.0585625579594249e-05  -2.8846540716411673e-05  -6.1236467028344418e-05  1.4368367652951201e-05  1.6705908993456098e-05  3.6196367024551082e-05  -4.2953579953510119e-06  1.2583340630920292e-04  -1.6932800549384955e-05  -1.4656571669964010e-05  -1.5153379296661430e-05  4.8677875425048331e-05  -3.1694979560495779e-05  5.5830996764425514e-05  -3.9225978854156833e-05  -1.9032465967026266e-05  -3.2985878660418557e-05  -1.5471988985591777e-05  -2.3307052699600936e-06  2.2912614542556139e-05  -2.8205466806251763e-05  -1.6174870381265773e-05  2.8029171062586554e-06  -1.4611752651931054e-05  2.1565068792059124e-04  2.7842871352129968e-05  2.4774755173480319e-05  1.2728969816540454e-05  7.4682159941422890e-06  8.4061897947995467e-06  2.6701712800693294e-05  4.1229685249376354e-05  8.4425287260923455e-06  -1.1777210876672060e-04  -3.8634667750772238e-06  5.4473898854182645e-05  -5.8106384550016134e-05  -2.8471221146211263e-05  -1.1094440130136291e-04  -4.5968281603765010e-05  1.8211925813245155e-05  3.9459611650401927e-05  4.5608783077391303e-05  -3.7881448738870625e-05  -1.6660712823636132e-04  5.9880486544359627e-05  -3.5291796013211005e-06  -6.3862033885233506e-05  3.2217006997722843e-05  -4.3446368938066369e-06  -5.5040691472504636e-05  -2.6283703736001831e-05  8.4256309759584547e-05  -6.9171278065748343e-06  -1.8013853141640980e-05  -2.4797375450988916e-05  -2.4193898053998303e-05  -2.7663771362806981e-05  4.2983227996389405e-05  -3.5380574806264154e-05  6.7422971187064816e-05  1.5760144460320545e-05  2.0157958936454464e-05  -9.3192157530551386e-05  1.2681896720347303e-06  -4.6254279500671395e-05  -1.9035722272563224e-05  -7.2593903647581619e-06  1.4889040381872295e-04  4.0395919556573311e-05  -8.4158871701837791e-06  -5.1109704080104609e-06  -5.5598183798458385e-05  2.1130875982105943e-05  3.8185890343677927e-06  1.2815479602650768e-05  1.1143306154481286e-05  3.6998860384425178e-05  2.0341237254361969e-03  -1.6665360850183436e-03  -1.7664572177614187e-05  -1.6132787759930235e-04  -2.8073388988544599e-05  4.5691315361487611e-06  1.6034192656867225e-05  -7.3964434767834133e-04  3.6663577346368404e-05  -1.1464124917608728e-04  6.9781724884055709e-05  1.8304209977001420e-05  4.0127325779832666e-05  -9.3249199369167078e-05  4.2564487706010032e-05  2.5646520837703806e-04  9.4954733380343039e-05  1.4340808283461111e-04  6.1575786968223503e-05  6.6324404674418890e-05  1.2571004041903784e-04  -5.3334516149408629e-05  3.7767767031081885e-05  3.9561951915874633e-05  -2.1896941315303294e-05  -3.2362167932199396e-05  8.2652105443630004e-06  2.4348833628105346e-05  -1.5301830608287853e-05  3.6189715638107600e-05  -1.1707803828918343e-06  -1.3424166295545997e-05  -1.4974003792327300e-05  6.3564216720789237e-06  1.9280500604398865e-05  -1.1981489743688159e-04  4.8498158827029317e-05  6.0662343854420751e-06  1.3321374919405250e-05  2.1139373422635606e-06  1.5523199117080115e-04  2.6957326629194309e-04  -8.6568570543693025e-07  -3.4973644552203036e-06  -2.4270109457784968e-05  3.1591705560453795e-05  5.4444012848068735e-05  2.0491890207547774e-05  3.3725084799939253e-04  5.6725482926165240e-05  4.3171099644809231e-06  -1.9765691848233605e-04  9.0908198317739256e-05  3.8248068389277264e-05  -5.2217836284196744e-05  -5.8687928023599259e-06  -9.2544753225740463e-04  1.8552296570738068e-04  5.7665302337396205e-04  2.1560032264613939e-04  -4.7763593084127490e-04  6.8742054054916630e-04  -3.9234186457643444e-05  -2.7374347970477510e-04  7.9259451915362090e-04  1.3500894618187850e-04  1.3010877117281444e-04  3.5346238589067485e-04  1.3333248526241297e-04  5.9281155906694188e-04  -1.0361726314071401e-04  8.0254035102670412e-05  1.0871993761943468e-04  -1.4724364831630198e-04  -2.7342538626061279e-04  6.9736798205071807e-05  -1.5494011822910517e-04  -3.4675335755260850e-04  -1.1560787040606118e-04  -4.7778653430067273e-05  2.1752815944733296e-05  1.5951087526468380e-05  -7.4451194772297719e-05  -2.6828549936455282e-05  6.0963742692887908e-05  2.2056313939509545e-06  -2.4358361400656119e-05  -1.0873599112027818e-05  -1.7228411084632450e-04  -6.0558443543585844e-05  1.9319973436792524e-04  -2.4671610050617398e-04  -3.8359710756712820e-05  8.0155410551585859e-05  -7.0280141740171871e-05  -2.8981193874907154e-04  5.2614483409962235e-05  6.7821840073222574e-05  -1.0904871387496442e-04  6.8541977168865849e-05  -2.4261539613222185e-05  2.6067526431059467e-05  -2.6674545577026287e-05  -1.6860749271864810e-05  -4.9635160133240972e-05  3.3945105014725283e-05  -1.0122706392718671e-05  -3.3093333570488624e-05  2.4316931064104699e-07  -2.1759076969478042e-05  -1.5287862724787955e-05  -1.1853308043441405e-05  -4.3673110950195490e-05  5.8620268478407987e-05  8.0696725017663067e-05  -3.6637309886258020e-05  4.5226672538036502e-05  -2.5695933061650901e-06  2.9915851553088444e-05  1.2274610813207171e-05  -3.1395626352907501e-05  6.3072117727454123e-05  8.1978171773365382e-05  3.4287656231629061e-06  6.5115958606534396e-06  -2.2434074472282351e-05  -7.7485804660178042e-05  -1.8686948514220892e-05  1.7605944660964004e-05  -1.4913220961963650e-06  -2.9249753280582199e-05  -1.7508121934134358e-05  -1.8440567460365829e-04  -1.2359069788686006e-05  -8.6051853887607370e-05  -5.3472373542784739e-06  -5.4984739361180834e-05  1.7759881916514108e-05  1.9388169590570375e-05  2.1331283813229154e-05  3.3759710156027455e-05  1.3434813227475035e-04  -5.1704899160353646e-06  -2.3443821565455799e-05  6.5420358322163127e-05  -3.2804857823492733e-05  -5.8539519316618032e-05  2.2802911928539755e-05  -1.5314071254391513e-05  -1.6150881799044810e-05  -1.6175615204727910e-05  1.3638330905375435e-05  -2.5818674743020466e-06  -3.3763544799591218e-05  -4.9499762210039112e-05  2.2251526713309314e-06  4.6879022590588610e-05  -1.0252236869557771e-05  -1.3907865847426957e-05  -5.4507909588618645e-06  1.2345069455874227e-05  -5.6358078899144547e-05  2.4691956054292047e-05  3.9482884681135050e-05  1.6322459883156791e-05  4.5378280342329601e-06  -4.8379667931651081e-05  1.5763148955756053e-05  3.7809191983409357e-05  6.4871343961008147e-06  2.7959168368693924e-05  1.6753428018473964e-04  2.3004901968442106e-05  1.1917416980726177e-04  2.9292883947655066e-05  -1.5866040796910975e-05  1.7583922855627130e-05  -8.3410702009953440e-05  -2.8438878909202455e-05  -8.3839151955251247e-05  -3.0559191543937121e-05  4.5677429997057549e-05  2.8852326659246169e-05  1.6859539464963083e-04  1.0460665337126788e-04  1.8265282708906563e-05  -1.5686317678737369e-05  -1.4574861698023227e-04  6.0021179990362695e-05  8.3046014193298129e-06  -3.926072248550