<?xml version="1.0"?>
<VTKFile type="UnstructuredGrid"  version="0.1"  >
<UnstructuredGrid>
<Piece  NumberOfPoints="1385" NumberOfCells="2640">
<Points>
<DataArray  type="Float64"  NumberOfComponents="3"  format="ascii">0 0 0  1 0 0  1 1 0  0 1 0  0.5 0 0  1 0.5 0  0.5 1 0  0 0.5 0  0.5 0.5 0  0 0.25 0  0.25 0 0  0.25 1 0  0 0.75 0  1 0.25 0  0.75 0 0  1 0.75 0  0.75 1 0  0.7083333333333333 0.2916666666666667 0  0.2916666666666666 0.7083333333333334 0  0.375 0.25 0  0.75 0.625 0  0.2569444444444444 0.4652777777777778 0  0.5366379310344828 0.7535919540229885 0  0.1875 0.1875 0  0.8125 0.8125 0  0.869047619047619 0.375 0  0.1450441919191919 0.6052714646464646 0  0.375 0.8690476190476191 0  0.5526960784313725 0.1825980392156862 0  0.8385416666666666 0.1614583333333334 0  0.1614583333333333 0.8385416666666667 0  0.6736111111111112 0.4652777777777778 0  0.1367521367521368 0.3477564102564102 0  0.6570970491253563 0.8648656830417855 0  0.5102479397556124 0.3386260301221938 0  0.3654513888888889 0.5737847222222222 0  0.6929750044954185 0.1362784921584263 0  0.388576102743835 0.411911725237599 0  0.6091269841269842 0.5942460317460317 0  0.875 0.6875 0  0.427278890279516 0.119889445139758 0  0.8544456845238095 0.5213913690476191 0  0.125 0 0  0 0.125 0  1 0.875 0  0.875 1 0  0.1280008648150532 0.4769292340226777 0  0.2695382451711197 0.3321750950221553 0  0.7031567235715964 0.7447810921428012 0  0.625 0 0  0.375 0 0  0.125 1 0  0.875 0 0  0 0.375 0  0 0.625 0  1 0.375 0  0.375 1 0  1 0.125 0  0 0.875 0  0.625 1 0  1 0.625 0  0.2979288363930608 0.1201429454643536 0  0.410919540229885 0.7484605911330049 0  0.5325041980395562 0.878905151526474 0  0.4831670727569156 0.6331060043826487 0  0.1735997378973042 0.7204747378973043 0  0.2534919507575758 0.5772372159090909 0  0.2633928571428572 0.8876488095238095 0  0.8199404761904761 0.2730654761904762 0  0.75830270586982 0.3919383189517417 0  0.5750282248382511 0.4237522353023667 0  0.6008360210023379 0.2794828358598495 0  0.08163442644334186 0.6821295860397322 0  0.08333333333333333 0.1875 0  0.2028380815996574 0.08844602719988583 0  0.2766521142611967 0.2325436572164097 0  0.90625 0.78125 0  0.890625 0.890625 0  0.7545696325008384 0.8973565441669461 0  0.5625 0.08086590340834317 0  0.09077380952380953 0.09077380952380952 0  0.4610923478694773 0.209034015149656 0  0.7542527598351648 0.5248380520595106 0  0.6459235536037465 0.3619913988405765 0  0.7560381768882634 0.20506142233852 0  0.07073252688172042 0.8125 0  0.0924753097241701 0.9078102849914793 0  0.9292674731182795 0.1875 0  0.9075246902758297 0.09218971500852073 0  0.8125 0.07073252688172045 0  0.2400955776842301 0.7869705776842302 0  0.9121050213379069 0.2781978201831695 0  0.7916878157143976 0.7239689078571988 0  0.9345238095238094 0.4375 0  0.4375 0.9345238095238095 0  0.3725616989755203 0.6651895248862173 0  0.06536271996350887 0.5625 0  0.9348362560379583 0.5625 0  0.456646798987055 0.8277247094351965 0  0.1875 0.9355758238725954 0  0.6169761231634859 0.6939779188977889 0  0.6226854751147515 0.7827911461419014 0  0.3305695598137626 0.7901697871282585 0  0.5865305325818898 0.5101085479043448 0  0.6622701297028378 0.2177663989757395 0  0.1354166666666667 0.2591702279202279 0  0 0.3125 0  0.2094429575680048 0.3936361846162499 0  0.836666296419157 0.607917407161686 0  0.6875 1 0  0.214261555450504 0.6492551722020035 0  0 0.4375 0  0.07731537126068377 0.40625 0  0.3427725432967068 0.4879566233699599 0  0.3550792513951871 0.3331953632609953 0  0.4462473953896857 0.2887834789342508 0  0.4747801464819794 0.417386052030127 0  0.8229836475148948 0.4443292349237342 0  0.7322605135514757 0.8199240278289671 0  0.6756431877205955 0.5468989748126787 0  0.1968419507215863 0.5194573482612496 0  0.3285590277777778 0.9345238095238095 0  0.8125 1 0  0.4198917601920009 0.5134893045331258 0  0.5232405503206691 0.2595791787880157 0  1 0.9375 0  0.1987510870015086 0.3025185951894431 0  0.5625 1 0  0.6005390654136388 0.9228110509230952 0  0.6411254848194414 0.07704872765442942 0  0.3357233162523242 0.1855113224530532 0  0.6730653396610877 0.6393887462324165 0  0.310966987234063 0.6240019765311626 0  0.7368737836204349 0.07457755202327881 0  0.6192316414418171 0.1485238406378594 0  0.5432429670607106 0.678552703844006 0  0.4754371679695679 0.7103946803120881 0  0.07501324890749672 0.3043839897335739 0  0.5358146975860403 0.5688321463205916 0  0.3115271739500156 0.3982137365971444 0  0.3625191397122174 0.0767854603650549 0  0.5024029442563831 0.1264128223758444 0  0.4375 0 0  0.4699946908887376 0.06379961173775725 0  0.9375 0.71875 0  0.9272105898044465 0.635671179608893 0  0.9375 1 0  0.6690971819568612 0.9331530898202766 0  0.1073454944778885 0.7499206387638554 0  0.8699082999280406 0.2232403652524313 0  0.5773118091863964 0.3548027349159383 0  0.1354166666666667 0.1428571428571428 0  0.3125 0 0  0.8241684193077341 0.9257452995055244 0  0.4352314948354036 0.3586940847489378 0  0.4351301473778832 0.5819726043539077 0  0.8073232928518163 0.3419398170341962 0  0.7775949246947366 0.1298519409204575 0  0.6875 0 0  0.7413513991851041 0.457933324954483 0  0.939453125 0.841796875 0  0.5630355154606987 0.8171875156478349 0  0.9345238095238095 0.3461466592368577 0  0.9375 0 0  1 0.0625 0  0.0625 1 0  0 0.9375 0  0.06552178593177167 0.4969053669623468 0  0.1424866619031703 0.4130277709291224 0  0.1275287182444726 0.5422946908002588 0  0.2637686595586339 0.06413888464529549 0  0.2524263535491086 0.1697437503243817 0  0.7367218397988525 0.6888573970660841 0  0.0625 0 0  0 0.0625 0  0.8463594539285995 0.7578283617857982 0  0.3128751192101563 0.2851997374369947 0  0.4015281788351144 0.1806421385113692 0  0.1910251795116588 0.4553332197174453 0  0.287797471442006 0.5222621440543902 0  0.3962628745986055 0.8097380085535307 0  0.3505895299554843 0.7304878890838692 0  0.5019151500495276 0.9356042615328103 0  0.9374389419410134 0.4999931039076005 0  0.3125 1 0  0.1875 1 0  1 0.5625 0  0.4375 1 0  1 0.3125 0  1 0.4375 0  0.8125 0 0  1 0.1875 0  0.5625 0 0  0.1875 0 0  0 0.1875 0  0 0.5625 0  0 0.6875 0  0 0.8125 0  1 0.6875 0  1 0.8125 0  0.8021696218581627 0.6612893947866073 0  0.06154922295426143 0.6239401126946708 0  0.9359375 0.9359375 0  0.4666158024849896 0.7691515918155014 0  0.2318201265217025 0.7064974250277525 0  0.1565954253579966 0.6635489312486841 0  0.1598132503680848 0.7787147500325552 0  0.3146529991605639 0.8510876378205265 0  0.1461873209418733 0.05982804528877814 0  0.06109554988524315 0.2446551776247686 0  0.8054950308560754 0.5564226538848541 0  0.470541749491976 0.8853316336952531 0  0.6948472567465137 0.4042308563372457 0  0.8802828472348889 0.4658893256343853 0  0.6788075634946739 0.7974194205806069 0  0.2155048659603867 0.2428201584940968 0  0.8131223143423806 0.2132171049028394 0  0.4330798005432235 0.6671274900735726 0  0.6015279126162613 0.2187368078743274 0  0.8061636571464289 0.8703766630361714 0  0.7008230445061776 0.3478568388444072 0  0.8638466246958771 0.3147095987735538 0  0.204801534004265 0.8789209409594009 0  0.2449006736431132 0.9424182882803838 0  0.7611268409371427 0.2643056884799992 0  0.7552800864046191 0.7678006649959446 0  0.5983639638906616 0.864113435029236 0  0.1956559506814437 0.577281203577426 0  0.3527670268164207 0.1320469097565204 0  0.7530364577483248 0.3262386077083089 0  0.4535919187979363 0.4690107087451527 0  0.8824869791666666 0.8336588541666666 0  0.8814453125 0.9451171875 0  0.5582987942628019 0.622421666543858 0  0.6817532446064828 0.6939001801354731 0  0.3830295138888889 0.9450968952922078 0  0.4140603937012541 0.05211333372716105 0  0.5535864501303013 0.3060591985391672 0  0.6560130086346878 0.2729726562211558 0  0.890203140221684 0.5948314305427268 0  0.7043857725999024 0.593980890020804 0  0.5105843922695152 0.8016828014338627 0  0.05365910753708378 0.7315110031682004 0  0.616904573672261 0.4621186633436136 0  0.5338511646455415 0.387875898899613 0  0.5231769258947843 0.4477682463140762 0  0.650302973237622 0.7370722302085519 0  0.3927483139621257 0.4662414504529014 0  0.8034595960585199 0.4972538342758211 0  0.7738337841682438 0.9496376207663251 0  0.7193737507158268 0.954685447650112 0  0.482525916480686 0.5528257169991676 0  0.2533501157346781 0.2809495420003238 0  0.3118487924482243 0.5702930126570319 0  0.6257598847669529 0.4104163315430518 0  0.1354166666666667 0.1955605158730158 0  0.04166666666666666 0.15625 0  0.3956448985530264 0.6174149462065157 0  0.8102897701818546 0.3938784238208349 0  0.2641154190013625 0.8344469561943118 0  0.642852220770013 0.5068794586563659 0  0.05271458179508221 0.355846947336007 0  0.7021551360070266 0.8921457280225779 0  0.5692125776683765 0.1328512638850284 0  0.5206162811937602 0.04865158770992991 0  0.6001838442201555 0.04540556991297563 0  0.2597716608242787 0.4118346398477178 0  0.4040584599473195 0.3179589136784675 0  0.1480337679295207 0.8941560631483065 0  0.1344356707112281 0.9466251177415842 0  0.7114696411829317 0.4983917389078826 0  0.7585704698442475 0.5751926345944629 0  0.2189131956390871 0.04022068508159698 0  0.2476935455192043 0.1123642267635843 0  0.185995005654517 0.1365524537205238 0  0.6223414373308711 0.643380839165121 0  0.5732602596637543 0.7190051747306219 0  0.268358222364537 0.6586246524467934 0  0.3265879848129173 0.2369791782191225 0  0.1267095595787346 0.7034787238999181 0  0.1115202922226038 0.6421997933884982 0  0.3128688392940203 0.07260997451790079 0  0.550724900485678 0.9253360991633187 0  0.7142608810459105 0.2384904702214873 0  0.7045869185243887 0.1871826897887429 0  0.890625 0.734375 0  0.953125 0.765625 0  0.2111812642821677 0.8286209446459138 0  0.9590293078204457 0.09375 0  0.953431269039847 0.1435719386408004 0  0.04097069217955424 0.90625 0  0.04656873096015299 0.8564280613591996 0  0.1078743037981226 0.8541621766048062 0  0.8921256962018773 0.1458378233951939 0  0.8521576979194619 0.1084496634207678 0  0.8655663982740958 0.05464346096571447 0  0.04005659640905543 0.09375 0  0.1001448316533417 0.04246776244228261 
[...]
<PointData  Scalars="f_8394-2"> 
<DataArray  type="Float64"  Name="f_8394-2"  format="ascii">-3.2759939164116506e-04  9.7687780519064822e-04  -6.7248308208993867e-05  -5.2324048418450680e-03  5.9229368099406770e-04  4.9602210497229019e-05  -4.2731559510166566e-05  -5.1985493715261933e-04  -4.0988038047350204e-05  -2.9966346285280820e-04  -4.2946230443620024e-04  -1.0803271682635451e-04  -1.3175579177678953e-03  1.1356030290937067e-04  3.0268233344521380e-04  3.6721863048574687e-05  -8.0070145875695865e-05  1.8918748066728646e-05  2.8939151713814399e-05  -4.3015221989342768e-05  2.3923575369624582e-05  5.4636687562761537e-05  5.7718286132802631e-05  2.9653142464775439e-05  1.6220417132776908e-05  -8.5627680951090500e-06  -6.0814351558207273e-05  -6.0948619701405181e-05  7.2790374418541093e-05  7.9684435972326984e-05  5.4567758432764374e-05  -5.8760118021235857e-05  -1.5294790503469810e-04  1.0774427193116545e-05  -8.1409454357060567e-05  9.1615082974986256e-06  7.7027408365612579e-06  9.9664705215875429e-05  -4.2837163746797327e-05  -5.2977308116448396e-05  9.9432581923497324e-05  -2.0028841620400737e-05  -3.2525646026395185e-04  -1.4185422931191425e-03  8.2819491817584526e-07  2.3539674035706105e-04  -6.5900332997967846e-06  5.4676044627610956e-05  3.4797573670688019e-05  6.9489749749081976e-05  4.3332404095225354e-04  4.7254641933078205e-05  2.1839473451594840e-04  4.2276844657389409e-04  -1.3211419882730275e-03  -7.2240283071345145e-05  1.4080011585211320e-04  5.2562627404721332e-05  2.8518993077108036e-04  9.0576736061581594e-05  -4.3036516282665065e-06  7.3244985970448887e-05  1.4229768211677763e-05  3.7522758704378075e-05  -1.2105580826239154e-05  -3.9332551767721887e-05  -7.3018642535109657e-05  -5.2414456632955484e-05  5.9550537628012568e-05  3.6057303954358316e-05  1.8903621406118564e-06  5.3392065925600556e-05  1.2979486055538319e-05  -1.7484914475251074e-04  -2.0702232345000467e-05  -8.1989250428537422e-05  -2.3697873478278626e-05  -2.0737326580288442e-05  1.5546501499846482e-05  1.5032357030486109e-04  -1.2139718751689279e-04  2.6297946614094323e-05  7.2666578065291905e-06  1.8886369729080829e-05  -1.4995586615647918e-04  1.6341712350594306e-04  -7.4004253088866140e-05  3.4027362550552708e-05  9.5201062904098839e-05  5.3043456034905992e-05  -1.1285188942526615e-04  1.1653165156680237e-06  -3.1194825913629500e-05  -9.6156660782339218e-06  1.8412486102997877e-05  2.6816181087675680e-05  2.1827036092125474e-06  -4.7940109915665921e-06  -3.6689054730190650e-06  -4.3021429908644891e-05  -3.8682823421051687e-05  5.7546299056563145e-06  9.4353008898635232e-06  -4.5421716617186359e-05  9.0750580533939073e-05  -1.3158664182585345e-04  -2.9287385197458206e-04  3.5285562265953805e-06  -2.1299110379954756e-05  1.0271227325808914e-05  8.0100286509518661e-05  6.4992976026268518e-05  -4.9465677306681394e-06  2.1863151231553031e-05  -3.9643907918054404e-05  8.8770989775837671e-05  1.7981417063452356e-05  -3.7843839152783553e-05  4.8541000685331412e-05  -2.5112624256595648e-05  5.1278536172865642e-06  -6.9308418106182049e-06  -3.7350913106096430e-05  5.4465006983539048e-06  -2.4455270511323284e-05  -2.4134360869611593e-04  8.8850823715872602e-06  1.2998726889364663e-05  -1.3863505714206494e-06  2.2198591266728651e-04  -1.7220210528344753e-04  -1.8481032520417292e-05  -6.2594519762701524e-05  5.0954562113587746e-05  3.4259709443106175e-04  2.7477527161639460e-05  1.4109557385090120e-05  -3.1701612065998742e-05  -2.6024651576564500e-05  -1.3503552502655794e-04  2.3752166360359413e-05  4.1254629208800454e-05  -4.9196340177287321e-04  3.6671679515201609e-05  -2.8767147416639708e-05  -4.1050060865857258e-06  1.3688724625738585e-04  2.5646468932643335e-05  -7.7510431962960093e-05  -1.9522791803854942e-05  7.4288615616277916e-05  2.8669372980758467e-05  9.4021824222798749e-04  3.4977437128379115e-05  -1.2780763148871941e-04  -1.4069290053774858e-05  1.0130381917472771e-05  2.6319769201119574e-05  1.3532477568820747e-04  4.0452127453196541e-05  -3.0150352743844812e-06  1.3101372025479462e-05  5.3895793887872174e-06  1.8998076249392138e-04  -1.2015016413670056e-04  -3.7390097251053295e-06  -9.5421934220972309e-04  -8.2857279401577012e-05  -1.8521062063338926e-05  2.4667144362685153e-05  7.1047894614198963e-05  7.1316355532909746e-05  -1.2829521698953140e-05  -2.5471023820628240e-04  -3.4323275799933960e-05  -8.9950455056981708e-06  5.5071516742452818e-05  -1.7478518191327461e-05  8.2950662469363858e-06  2.2259087095666801e-05  4.0741000091237676e-06  1.9018303683281477e-05  6.6764975458755096e-06  -2.5442987815657998e-05  -2.0648786219063027e-04  -7.5771137775540966e-05  1.0122220306131516e-06  1.0399028016453389e-04  9.0844959624419654e-05  -1.0193457192564530e-04  -6.9724333002989250e-05  2.5108503771839212e-04  4.1643009155753041e-05  2.1121016655409593e-04  1.8629044759866352e-04  -1.5530197170557424e-04  -4.0484818114730275e-04  1.3977414868104871e-04  -1.3317005158442134e-05  -1.4754767860893393e-04  -3.2037263635319332e-06  -1.7264945472133104e-04  1.6502243582110864e-05  6.1869836988140310e-06  2.3073188583556121e-05  -3.0524666355618004e-05  -8.4030919938837198e-06  -1.1313581309615597e-05  1.1799337070783042e-04  -1.6626596200289322e-04  -2.5330036505554252e-05  4.8546802856325886e-06  2.0319907907326756e-05  -5.6679217198546201e-05  2.9556798257529206e-05  1.1120384769138483e-04  -2.9776585278015876e-05  7.7165699424585069e-06  5.0318275298064688e-05  -1.7078846303998538e-05  3.3288176611364507e-05  2.9538632770644825e-05  -1.7166242049806022e-05  -2.2385733762774096e-05  -2.5608434462839612e-05  5.6760818294147910e-06  1.2395893626329580e-05  2.3945887989247640e-06  6.3813037240171715e-05  1.8128684161665204e-05  7.7845488018567764e-06  7.5893551859700917e-06  1.0094426696537177e-04  8.1027214728008488e-06  -4.7515947053394791e-06  -4.0638744716979293e-05  1.4485827990173955e-06  -3.9900828109079391e-05  6.2311710155567032e-06  -4.7966680242824137e-06  1.0822311040113446e-05  -5.9524951422964714e-06  -1.6007395042051633e-05  -2.7315953452336389e-05  1.4225749224252670e-05  6.3464907705676276e-06  2.0288830816306699e-06  3.4563130538960427e-05  -4.3274227490629930e-05  3.6403843707100973e-05  4.0891755407139739e-05  1.7733212122433210e-05  -6.1168541849091404e-06  8.5752763936618745e-05  -4.1134428442186015e-05  -3.5516905922150701e-05  -1.6145434387594305e-04  -5.8015292423735598e-07  8.9992514533962060e-06  -4.2417340168203763e-05  -4.6911545222316953e-05  4.6948422566269687e-05  2.7183161747632720e-05  7.5187670152823395e-05  1.1416336072673887e-04  1.5216593972518428e-04  9.0269046716813156e-05  5.2992467528213706e-06  -8.9000090839521501e-06  -4.5992756897007760e-05  6.0226289376325435e-05  -3.3377740463589623e-05  1.1287772062606786e-04  6.5556444879507020e-05  -9.8588569936710116e-05  2.2571160613080457e-05  -2.2047828415372749e-05  -1.1964693795136523e-05  -6.7276989470508699e-05  -2.9050970013825659e-05  -3.1065683531646758e-05  3.0262631638803620e-07  2.8702206137886550e-05  -6.5884947360266482e-05  -4.2059709356376005e-05  -1.4047269190922277e-05  -4.9941642407874910e-05  5.4364017057039019e-05  1.2770856479547556e-04  3.4283880285111328e-05  -1.5417262381289254e-05  -5.4676335405142356e-05  -4.5652772724145639e-05  4.3960060926725442e-05  7.6669743732562373e-06  6.5701758809589531e-05  -3.4669081563066925e-05  1.9143599524136332e-05  1.3896553121008881e-04  -1.0313368856498612e-04  1.1952486265963722e-05  1.8384707575444539e-04  9.7404547890473812e-05  3.1847315822920721e-05  7.0479501587434552e-05  -1.7873989584510378e-05  5.0978066146800533e-05  3.0081296718866293e-05  -1.2280393679125414e-05  -5.9499648393904852e-05  6.9481978249751056e-05  6.0999096299769296e-05  -7.5437640056753884e-05  2.4435564413437749e-05  -7.4409755335142725e-05  2.9051282883085639e-05  -3.4424743335393633e-05  6.3833170297813012e-05  -1.9283741289374229e-05  1.0020101072943765e-04  -6.2906085907021267e-05  -4.9563740999306517e-05  -5.4747054847807654e-05  5.1953977653621696e-05  -3.5387177063125526e-05  7.5045528053019168e-05  7.4177269173234827e-05  -2.3752863284823539e-05  1.7835471425663902e-05  -4.7208846794221920e-05  -2.5943399883324823e-05  -6.1103914033249019e-05  2.8416644071765229e-04  -5.1383577297699851e-05  1.6581044857454325e-05  -1.4678991349930927e-05  1.8826244072332300e-05  1.5714550286845495e-05  -2.0629880481550298e-05  -2.4871903324055859e-05  1.5507322761537392e-05  -7.1458438799184480e-05  1.7451884211087550e-04  -2.1475155242550792e-05  1.1868471941802873e-05  1.8892003296206178e-05  1.5103563229864144e-04  5.7280264219143953e-05  -6.6651792717077850e-06  1.2616617235520335e-05  -1.4511744809978479e-05  1.3312890199243295e-05  -1.0591707847613432e-05  -1.6563427627925293e-04  2.4686212717053456e-04  4.0460474372068952e-05  -6.8731656730576414e-06  -2.0107069590502596e-05  -1.4210156848675325e-04  -5.9002817867895237e-05  -1.9068168125406530e-06  8.4879905623323581e-06  2.0631102324515414e-05  -1.5421257381573555e-04  -1.0726794102521863e-04  -8.1065434373785459e-06  -2.2780874951616376e-05  6.9110827720978856e-05  2.4104278298135732e-05  1.4982308454222142e-05  -7.8111794730604647e-05  -2.4583070640127270e-04  4.6547685773880055e-07  -2.9821813124446340e-05  6.1275976344726989e-05  -1.8540202901890502e-06  -2.0626970491271143e-04  2.4916405081241288e-06  1.9081894294120093e-05  1.5113596411995327e-05  -1.6405786419842786e-04  -5.3444310462247069e-05  -1.5902120480920770e-05  -4.7925694035256209e-06  -4.6783924889324012e-05  2.6219371133582858e-05  -2.0221474226530166e-06  -1.7939358655430162e-05  -9.1030969963720211e-05  2.3165043867184983e-05  2.2135102952743143e-05  -1.5503903786960276e-04  -3.5527595641005683e-05  -3.9934792249758521e-05  2.1353325284364599e-05  1.2492517221814081e-05  -6.6023477666572205e-05  -4.4973061198854725e-05  -1.6776356886523386e-04  -1.8500556400625245e-04  -9.9963130932730846e-06  -4.0935728065790694e-05  4.3927842463226244e-05  -3.0306259932797997e-05  -8.8966393126000525e-06  1.5904748365413607e-05  1.9582578927383361e-05  2.1757970772566561e-04  5.3196828930822919e-05  -6.7555514408576553e-05  -8.0662490871008576e-05  2.0213609494372898e-05  -1.1589170467317514e-04  4.1012768467593026e-05  1.4358975136814607e-04  7.9143370212445672e-05  -5.2813521145906815e-05  7.0167720125659713e-05  -5.5518236473916931e-05  -4.0337966141172731e-05  -2.1673952753639819e-04  -4.8926960209650119e-05  -4.0977084530659972e-06  -5.9968792603310051e-06  -9.9532240990145179e-05  -7.3667907305362620e-05  -2.7527914800485569e-05  1.6137536343155308e-05  -3.7018350672333135e-05  5.7378856024189797e-05  -2.3396564573802003e-05  6.1277779587824501e-05  4.7880666703536646e-05  1.7847766789937860e-05  -4.0843835964499252e-05  9.5155104481980748e-06  2.2495786715235157e-05  -4.8054956675582853e-05  2.6568843470829897e-05  1.3523646288146897e-04  6.0287455178822023e-05  -1.0701340796226518e-05  6.3261159593743402e-05  -2.3074508734384710e-05  2.2375451836238761e-05  9.1600950483686946e-05  -7.9323795146036958e-05  3.7118059793396823e-05  -1.4846380778317034e-05  2.8585907737802881e-05  2.5943162013204231e-04  8.8844685248850588e-06  -1.3192961847588065e-04  3.2087380924715470e-05  8.2750687968074550e-05  -1.2849124771853202e-05  -5.3111412205582928e-06  -3.0219688802988364e-05  -4.6197670866805737e-05  -7.1656042741553738e-05  -3.4196808304187095e-05  5.0995170220607848e-05  -5.4413501183537579e-05  -5.3453356416833433e-06  5.1942047231136266e-06  -4.1208571386455270e-05  -2.6499416107596372e-04  -4.0632241054951695e-05  9.9459403401307083e-06  -3.5677310706393913e-05  8.8534328571386614e-05  1.2715008860769966e-04  5.7913027665374982e-05  9.2078394369793435e-05  2.1079391474792090e-05  -3.7886540116393332e-05  -3.5886235062497016e-05  8.0289502499098501e-05  -7.2737341359413696e-05  4.1648682819257304e-05  3.0236813654027868e-05  -3.3844380808140450e-05  -1.9666676754901004e-04  -3.3240237653704902e-05  -1.0423532831344844e-04  4.7559423757400863e-05  -3.1396541744401186e-05  -3.2844465024489841e-05  -6.2541236949592756e-05  -5.5186465157063758e-07  -4.8698253721768212e-05  -2.6445856762997474e-05  7.9189518625691130e-05  6.6571188146577579e-05  -1.0988617469261135e-06  2.6325671026288973e-06  -3.4900521335591770e-06  4.0488344347737461e-05  1.1401785063876402e-05  2.1243689540509509e-05  1.3204603421869596e-05  7.2442184117619866e-06  5.4721610623527340e-04  -2.7531347238325638e-04  -5.9829048975458494e-06  2.9708617003413690e-05  7.5394350961877009e-05  3.0849224104582306e-05  -3.9180302357790681e-05  1.1916583786567315e-05  5.6277222238646650e-06  4.8357207565407358e-05  3.2100593540587164e-05  -3.4289256244483148e-05  2.2997979353624470e-05  4.7204091185722933e-04  -4.7104857163358035e-05  -6.8161742469203672e-05  -1.8093212462079032e-05  -3.9055369227149768e-05  -4.7393015811560481e-05  -2.2440050400923031e-05  -1.8242976803928185e-05  -1.7851429179530672e-05  -1.8179011519508324e-06  -3.2886673049781574e-06  9.3934869463211134e-06  -7.1729909382831027e-06  -2.9832138002415344e-05  1.2504866175551272e-04  -9.0559218286805926e-06  -2.9046329475837024e-05  2.1575335913245536e-04  2.9572678394064344e-05  -1.5908124688933416e-04  -2.2115578276172990e-04  -1.4255311545118266e-05  2.9119036736150028e-05  -1.4213487523165006e-05  6.3806140579107768e-05  -7.6375397730539787e-05  -4.4883610673118183e-05  -3.0657635606419054e-05  3.7862386731868727e-04  4.0142004902577370e-05  -3.0108679706895159e-05  -6.2156704656569496e-05  1.4433284075502016e-05  2.1225725535542372e-05  3.9283720140478740e-05  -4.3904937979215269e-06  1.2577745197497937e-04  -1.7089375002594294e-05  -2.6711199854716630e-05  -1.9148506956501030e-05  4.8805571921325394e-05  -3.1432575170807595e-05  5.8079840913916548e-05  -3.7320269528309931e-05  -1.8469861218548711e-05  -3.2004828287675054e-05  -1.3406634631840782e-05  -3.4357066192676806e-06  2.1641051779560127e-05  -2.8124141513799370e-05  -2.1669989123410990e-05  4.5370496439557341e-06  -1.4687013242552180e-05  2.2075440429285780e-04  2.7386423107857413e-05  2.8636261193647428e-05  1.3186214231429485e-05  9.6477089826970960e-06  7.0770725580461355e-06  2.6722315875603851e-05  4.2688428354834976e-05  9.5525218303533349e-06  -1.3141481790486368e-04  -3.8588052983022321e-06  5.9325694202038619e-05  -7.0867284413158427e-05  -3.1798720787842142e-05  -1.1096122130976607e-04  -4.5835186804274968e-05  1.7532912627748158e-05  4.0966843928658395e-05  4.6200992055379961e-05  -3.7518066371566902e-05  -1.8432153744946816e-04  6.4438807737772334e-05  -3.5315575817037242e-06  -6.6068182985207775e-05  3.1797782310820712e-05  -4.2043607205080272e-06  -5.5225530966676572e-05  -2.6013354211309379e-05  8.5456023941460159e-05  -8.1771331512045480e-06  -1.7807260502505693e-05  -2.4433454944617302e-05  -1.6409436391723540e-05  -2.1739255369543762e-05  4.7773371486902883e-05  -3.5203995087241537e-05  6.8738473791893120e-05  1.5678574166867047e-05  2.0183249953220095e-05  -9.3225162795697674e-05  3.0977629915250617e-06  -6.2083064263691640e-05  -1.9158172608683140e-05  -7.8010780987673099e-06  1.5149863921938916e-04  4.1939772659775367e-05  -1.2518884499108476e-05  -1.1199624849458696e-05  -5.5627872765247132e-05  2.5163645071902561e-05  1.8329187955672571e-06  1.3181280800474283e-05  1.0402737731156071e-05  3.7686964876111062e-05  2.0952680053530309e-03  -1.7319711970880346e-03  -1.9257809884130116e-05  -1.6265729822270198e-04  -2.9930323386432687e-05  2.6625011085400594e-06  2.2151592199959242e-05  -7.4564381881063262e-04  3.5946419051569565e-05  -1.1453645706159399e-04  6.9794421545570711e-05  1.8698699471460424e-05  4.1272993943359056e-05  -9.6957557833488657e-05  4.2578813305067659e-05  2.7600747295736494e-04  1.1885947507971817e-04  1.5380168647470096e-04  6.4241008916300583e-05  6.5898483231890075e-05  1.2354213408565995e-04  -5.2801006395883326e-05  3.8607590979446598e-05  3.9213815821916552e-05  -2.2958023232583012e-05  -3.2947703762138804e-05  7.3661490404715649e-06  2.4059423070392909e-05  -1.5529086058742021e-05  3.7343088015872116e-05  -2.0180220972617950e-06  -1.3488302270952377e-05  -1.5207129653056261e-05  5.5106549907747074e-06  1.7014895411990979e-05  -1.1711470597860942e-04  5.0880062675318271e-05  1.2786607496293590e-05  1.5737762543045660e-05  -8.4942194878853237e-07  1.6060922414953493e-04  3.0878097536180709e-04  -1.7070074992383306e-06  1.7167610459251532e-06  -1.5446785786528630e-05  2.9657678854343637e-05  5.2781827850336068e-05  2.1714030118866862e-05  3.4105628617332170e-04  5.2119302086389276e-05  -1.2225640707802339e-06  -1.9904785354625347e-04  9.0477224483306152e-05  3.5167884258761771e-05  -4.8902402595853872e-05  -6.0898335148691591e-06  -9.4905596705513776e-04  1.8556539162529177e-04  6.0281914937343809e-04  2.1138045962025201e-04  -4.7779191911625856e-04  7.0084273377749961e-04  -4.8288969181087038e-05  -2.8665878037385160e-04  8.4397969165163898e-04  1.4564711991498381e-04  1.3879759534953279e-04  3.6490068875314678e-04  1.3896434002897377e-04  5.6040277456365995e-04  -1.3191033974784650e-04  9.0112881972897609e-05  1.0513365378945531e-04  -1.8039569987044155e-04  -2.8143796607239927e-04  6.9741629253082795e-05  -1.7192462507831656e-04  -3.6825885429399616e-04  -1.2744079076518964e-04  -6.1771499366690782e-05  2.2033577376702022e-05  1.6211382696842143e-05  -7.4342518353919860e-05  -2.8315871290018150e-05  6.1193805393003491e-05  2.2009892339226895e-06  -2.5254185353770268e-05  -1.0750351547629847e-05  -1.7186256411257068e-04  -6.4983775748538849e-05  2.1600557432169807e-04  -2.6032730319479639e-04  -3.7619923640412167e-05  7.6894701077844093e-05  -7.0856876998211466e-05  -2.9711077004299059e-04  5.4826037473722767e-05  6.1132470979227512e-05  -1.1882376064537408e-04  6.8141907934463097e-05  -2.5270596716914664e-05  2.5333618228474253e-05  -2.7520098528409699e-05  -1.7038933135931208e-05  -5.0685670598220427e-05  3.3863339458263810e-05  -1.2177671324596349e-05  -3.2990264368295783e-05  5.0241197770727546e-07  -2.1205249379005101e-05  -1.5761220014851346e-05  -1.2294924011879048e-05  -4.3725967647536364e-05  6.2496219750536703e-05  7.9955151813737067e-05  -3.6230391527623667e-05  4.3693929066464295e-05  -2.8229200402657981e-06  3.0522551605391582e-05  1.3334748116092378e-05  -3.1497676253225408e-05  6.2943229869998982e-05  8.2463629754220979e-05  4.8736431884765286e-06  6.2202196185251562e-06  -2.5740878053714333e-05  -7.7327420549024085e-05  -1.8839467313407586e-05  1.6883222804227549e-05  -2.2684996536473418e-06  -3.0365112195190294e-05  -1.8519981549663922e-05  -1.8749104102976408e-04  -1.2206520997911081e-05  -8.5663014339342725e-05  -4.2727880394163255e-06  -5.4404260155685036e-05  2.0268145685673245e-05  1.9426713580659114e-05  2.2540349967489498e-05  3.3849112348186676e-05  1.3413812724536958e-04  -4.2255672921138177e-06  -2.3465377514446000e-05  6.5100812894509691e-05  -3.2764437102052171e-05  -5.7954037730432745e-05  2.2145407390564594e-05  -1.5038245987041379e-05  -1.6440972595526118e-05  -1.6843154282303460e-05  1.3567795288507437e-05  -4.6647224501818473e-06  -3.4391931195034090e-05  -5.0621373258132880e-05  5.5945411708540849e-06  4.6636867745460121e-05  -9.0617505985288001e-06  -1.6410629557951323e-05  -6.8682626218818975e-06  1.4167600494666419e-05  -5.6346732269433220e-05  2.4464128071418730e-05  3.9549363488463941e-05  1.6103765792769913e-05  6.5222783750499692e-06  -4.4832630865780900e-05  1.5845249027578440e-05  4.2427616002348440e-05  5.8694387854516647e-06  2.7801805631065620e-05  1.6919329059107867e-04  2.1003138755791899e-05  1.1728488678449277e-04  2.2633414679963163e-05  -1.4830939047774002e-05  2.1091142876974793e-05  -9.5526157391385576e-05  -2.7630659599032096e-05  -9.1068106845138995e-05  -3.0781717931148716e-05  4.5680818370096620e-05  2.8788682493303550e-05  1.6942873184822859e-04  1.0389679423735700e-04  1.9735603855064899e-05  -1.5630880909695728e-05  -1.4574811281480965e-04  5.9593914296143302e-05  6.5766365934544060e-06  -4.170027186375141