<?xml version="1.0"?>
<VTKFile type="UnstructuredGrid"  version="0.1"  >
<UnstructuredGrid>
<Piece  NumberOfPoints="1385" NumberOfCells="2640">
<Points>
<DataArray  type="Float64"  NumberOfComponents="3"  format="ascii">0 0 0  1 0 0  1 1 0  0 1 0  0.5 0 0  1 0.5 0  0.5 1 0  0 0.5 0  0.5 0.5 0  0 0.25 0  0.25 0 0  0.25 1 0  0 0.75 0  1 0.25 0  0.75 0 0  1 0.75 0  0.75 1 0  0.7083333333333333 0.2916666666666667 0  0.2916666666666666 0.7083333333333334 0  0.375 0.25 0  0.75 0.625 0  0.2569444444444444 0.4652777777777778 0  0.5366379310344828 0.7535919540229885 0  0.1875 0.1875 0  0.8125 0.8125 0  0.869047619047619 0.375 0  0.1450441919191919 0.6052714646464646 0  0.375 0.8690476190476191 0  0.5526960784313725 0.1825980392156862 0  0.8385416666666666 0.1614583333333334 0  0.1614583333333333 0.8385416666666667 0  0.6736111111111112 0.4652777777777778 0  0.1367521367521368 0.3477564102564102 0  0.6570970491253563 0.8648656830417855 0  0.5102479397556124 0.3386260301221938 0  0.3654513888888889 0.5737847222222222 0  0.6929750044954185 0.1362784921584263 0  0.388576102743835 0.411911725237599 0  0.6091269841269842 0.5942460317460317 0  0.875 0.6875 0  0.427278890279516 0.119889445139758 0  0.8544456845238095 0.5213913690476191 0  0.125 0 0  0 0.125 0  1 0.875 0  0.875 1 0  0.1280008648150532 0.4769292340226777 0  0.2695382451711197 0.3321750950221553 0  0.7031567235715964 0.7447810921428012 0  0.625 0 0  0.375 0 0  0.125 1 0  0.875 0 0  0 0.375 0  0 0.625 0  1 0.375 0  0.375 1 0  1 0.125 0  0 0.875 0  0.625 1 0  1 0.625 0  0.2979288363930608 0.1201429454643536 0  0.410919540229885 0.7484605911330049 0  0.5325041980395562 0.878905151526474 0  0.4831670727569156 0.6331060043826487 0  0.1735997378973042 0.7204747378973043 0  0.2534919507575758 0.5772372159090909 0  0.2633928571428572 0.8876488095238095 0  0.8199404761904761 0.2730654761904762 0  0.75830270586982 0.3919383189517417 0  0.5750282248382511 0.4237522353023667 0  0.6008360210023379 0.2794828358598495 0  0.08163442644334186 0.6821295860397322 0  0.08333333333333333 0.1875 0  0.2028380815996574 0.08844602719988583 0  0.2766521142611967 0.2325436572164097 0  0.90625 0.78125 0  0.890625 0.890625 0  0.7545696325008384 0.8973565441669461 0  0.5625 0.08086590340834317 0  0.09077380952380953 0.09077380952380952 0  0.4610923478694773 0.209034015149656 0  0.7542527598351648 0.5248380520595106 0  0.6459235536037465 0.3619913988405765 0  0.7560381768882634 0.20506142233852 0  0.07073252688172042 0.8125 0  0.0924753097241701 0.9078102849914793 0  0.9292674731182795 0.1875 0  0.9075246902758297 0.09218971500852073 0  0.8125 0.07073252688172045 0  0.2400955776842301 0.7869705776842302 0  0.9121050213379069 0.2781978201831695 0  0.7916878157143976 0.7239689078571988 0  0.9345238095238094 0.4375 0  0.4375 0.9345238095238095 0  0.3725616989755203 0.6651895248862173 0  0.06536271996350887 0.5625 0  0.9348362560379583 0.5625 0  0.456646798987055 0.8277247094351965 0  0.1875 0.9355758238725954 0  0.6169761231634859 0.6939779188977889 0  0.6226854751147515 0.7827911461419014 0  0.3305695598137626 0.7901697871282585 0  0.5865305325818898 0.5101085479043448 0  0.6622701297028378 0.2177663989757395 0  0.1354166666666667 0.2591702279202279 0  0 0.3125 0  0.2094429575680048 0.3936361846162499 0  0.836666296419157 0.607917407161686 0  0.6875 1 0  0.214261555450504 0.6492551722020035 0  0 0.4375 0  0.07731537126068377 0.40625 0  0.3427725432967068 0.4879566233699599 0  0.3550792513951871 0.3331953632609953 0  0.4462473953896857 0.2887834789342508 0  0.4747801464819794 0.417386052030127 0  0.8229836475148948 0.4443292349237342 0  0.7322605135514757 0.8199240278289671 0  0.6756431877205955 0.5468989748126787 0  0.1968419507215863 0.5194573482612496 0  0.3285590277777778 0.9345238095238095 0  0.8125 1 0  0.4198917601920009 0.5134893045331258 0  0.5232405503206691 0.2595791787880157 0  1 0.9375 0  0.1987510870015086 0.3025185951894431 0  0.5625 1 0  0.6005390654136388 0.9228110509230952 0  0.6411254848194414 0.07704872765442942 0  0.3357233162523242 0.1855113224530532 0  0.6730653396610877 0.6393887462324165 0  0.310966987234063 0.6240019765311626 0  0.7368737836204349 0.07457755202327881 0  0.6192316414418171 0.1485238406378594 0  0.5432429670607106 0.678552703844006 0  0.4754371679695679 0.7103946803120881 0  0.07501324890749672 0.3043839897335739 0  0.5358146975860403 0.5688321463205916 0  0.3115271739500156 0.3982137365971444 0  0.3625191397122174 0.0767854603650549 0  0.5024029442563831 0.1264128223758444 0  0.4375 0 0  0.4699946908887376 0.06379961173775725 0  0.9375 0.71875 0  0.9272105898044465 0.635671179608893 0  0.9375 1 0  0.6690971819568612 0.9331530898202766 0  0.1073454944778885 0.7499206387638554 0  0.8699082999280406 0.2232403652524313 0  0.5773118091863964 0.3548027349159383 0  0.1354166666666667 0.1428571428571428 0  0.3125 0 0  0.8241684193077341 0.9257452995055244 0  0.4352314948354036 0.3586940847489378 0  0.4351301473778832 0.5819726043539077 0  0.8073232928518163 0.3419398170341962 0  0.7775949246947366 0.1298519409204575 0  0.6875 0 0  0.7413513991851041 0.457933324954483 0  0.939453125 0.841796875 0  0.5630355154606987 0.8171875156478349 0  0.9345238095238095 0.3461466592368577 0  0.9375 0 0  1 0.0625 0  0.0625 1 0  0 0.9375 0  0.06552178593177167 0.4969053669623468 0  0.1424866619031703 0.4130277709291224 0  0.1275287182444726 0.5422946908002588 0  0.2637686595586339 0.06413888464529549 0  0.2524263535491086 0.1697437503243817 0  0.7367218397988525 0.6888573970660841 0  0.0625 0 0  0 0.0625 0  0.8463594539285995 0.7578283617857982 0  0.3128751192101563 0.2851997374369947 0  0.4015281788351144 0.1806421385113692 0  0.1910251795116588 0.4553332197174453 0  0.287797471442006 0.5222621440543902 0  0.3962628745986055 0.8097380085535307 0  0.3505895299554843 0.7304878890838692 0  0.5019151500495276 0.9356042615328103 0  0.9374389419410134 0.4999931039076005 0  0.3125 1 0  0.1875 1 0  1 0.5625 0  0.4375 1 0  1 0.3125 0  1 0.4375 0  0.8125 0 0  1 0.1875 0  0.5625 0 0  0.1875 0 0  0 0.1875 0  0 0.5625 0  0 0.6875 0  0 0.8125 0  1 0.6875 0  1 0.8125 0  0.8021696218581627 0.6612893947866073 0  0.06154922295426143 0.6239401126946708 0  0.9359375 0.9359375 0  0.4666158024849896 0.7691515918155014 0  0.2318201265217025 0.7064974250277525 0  0.1565954253579966 0.6635489312486841 0  0.1598132503680848 0.7787147500325552 0  0.3146529991605639 0.8510876378205265 0  0.1461873209418733 0.05982804528877814 0  0.06109554988524315 0.2446551776247686 0  0.8054950308560754 0.5564226538848541 0  0.470541749491976 0.8853316336952531 0  0.6948472567465137 0.4042308563372457 0  0.8802828472348889 0.4658893256343853 0  0.6788075634946739 0.7974194205806069 0  0.2155048659603867 0.2428201584940968 0  0.8131223143423806 0.2132171049028394 0  0.4330798005432235 0.6671274900735726 0  0.6015279126162613 0.2187368078743274 0  0.8061636571464289 0.8703766630361714 0  0.7008230445061776 0.3478568388444072 0  0.8638466246958771 0.3147095987735538 0  0.204801534004265 0.8789209409594009 0  0.2449006736431132 0.9424182882803838 0  0.7611268409371427 0.2643056884799992 0  0.7552800864046191 0.7678006649959446 0  0.5983639638906616 0.864113435029236 0  0.1956559506814437 0.577281203577426 0  0.3527670268164207 0.1320469097565204 0  0.7530364577483248 0.3262386077083089 0  0.4535919187979363 0.4690107087451527 0  0.8824869791666666 0.8336588541666666 0  0.8814453125 0.9451171875 0  0.5582987942628019 0.622421666543858 0  0.6817532446064828 0.6939001801354731 0  0.3830295138888889 0.9450968952922078 0  0.4140603937012541 0.05211333372716105 0  0.5535864501303013 0.3060591985391672 0  0.6560130086346878 0.2729726562211558 0  0.890203140221684 0.5948314305427268 0  0.7043857725999024 0.593980890020804 0  0.5105843922695152 0.8016828014338627 0  0.05365910753708378 0.7315110031682004 0  0.616904573672261 0.4621186633436136 0  0.5338511646455415 0.387875898899613 0  0.5231769258947843 0.4477682463140762 0  0.650302973237622 0.7370722302085519 0  0.3927483139621257 0.4662414504529014 0  0.8034595960585199 0.4972538342758211 0  0.7738337841682438 0.9496376207663251 0  0.7193737507158268 0.954685447650112 0  0.482525916480686 0.5528257169991676 0  0.2533501157346781 0.2809495420003238 0  0.3118487924482243 0.5702930126570319 0  0.6257598847669529 0.4104163315430518 0  0.1354166666666667 0.1955605158730158 0  0.04166666666666666 0.15625 0  0.3956448985530264 0.6174149462065157 0  0.8102897701818546 0.3938784238208349 0  0.2641154190013625 0.8344469561943118 0  0.642852220770013 0.5068794586563659 0  0.05271458179508221 0.355846947336007 0  0.7021551360070266 0.8921457280225779 0  0.5692125776683765 0.1328512638850284 0  0.5206162811937602 0.04865158770992991 0  0.6001838442201555 0.04540556991297563 0  0.2597716608242787 0.4118346398477178 0  0.4040584599473195 0.3179589136784675 0  0.1480337679295207 0.8941560631483065 0  0.1344356707112281 0.9466251177415842 0  0.7114696411829317 0.4983917389078826 0  0.7585704698442475 0.5751926345944629 0  0.2189131956390871 0.04022068508159698 0  0.2476935455192043 0.1123642267635843 0  0.185995005654517 0.1365524537205238 0  0.6223414373308711 0.643380839165121 0  0.5732602596637543 0.7190051747306219 0  0.268358222364537 0.6586246524467934 0  0.3265879848129173 0.2369791782191225 0  0.1267095595787346 0.7034787238999181 0  0.1115202922226038 0.6421997933884982 0  0.3128688392940203 0.07260997451790079 0  0.550724900485678 0.9253360991633187 0  0.7142608810459105 0.2384904702214873 0  0.7045869185243887 0.1871826897887429 0  0.890625 0.734375 0  0.953125 0.765625 0  0.2111812642821677 0.8286209446459138 0  0.9590293078204457 0.09375 0  0.953431269039847 0.1435719386408004 0  0.04097069217955424 0.90625 0  0.04656873096015299 0.8564280613591996 0  0.1078743037981226 0.8541621766048062 0  0.8921256962018773 0.1458378233951939 0  0.8521576979194619 0.1084496634207678 0  0.8655663982740958 0.05464346096571447 0  0.04005659640905543 0.09375 0  0.1001448316533417 0.04246776244228261 
[...]
<PointData  Vectors="f_8394-0-1"> 
<DataArray  type="Float64"  Name="f_8394-0-1"  NumberOfComponents="3" format="ascii">4.3225250938144430e-03 -1.7988996024902750e-02 0.0000000000000000e+00  1.4708741038319503e-03 -8.4191205471206187e-01 0.0000000000000000e+00  2.4042813794272764e-03 -9.1371822450763829e-01 0.0000000000000000e+00  5.1433285250936187e-06 -8.4574291922672573e-01 0.0000000000000000e+00  3.0653653052380436e-03 -4.8556105219809864e-01 0.0000000000000000e+00  -1.3970912944039071e-04 -9.9692980172594781e-01 0.0000000000000000e+00  9.5423103306124801e-05 -9.9803843551753657e-01 0.0000000000000000e+00  5.2499347473635716e-03 -4.8448052953553211e-01 0.0000000000000000e+00  -2.1230831471411027e-03 -8.3671893624369120e-01 0.0000000000000000e+00  1.6748795036389675e-03 -2.5583405574573675e-01 0.0000000000000000e+00  4.0825947397486462e-03 -2.5494920194208387e-01 0.0000000000000000e+00  -9.8443454496624505e-04 -9.4636645377408757e-01 0.0000000000000000e+00  1.0634330267769168e-03 -6.8663427748833705e-01 0.0000000000000000e+00  -1.7647424427923442e-03 -9.4611366583510503e-01 0.0000000000000000e+00  -1.6130491969680860e-03 -6.7441926594746260e-01 0.0000000000000000e+00  1.0739562263415436e-03 -9.8567550954493810e-01 0.0000000000000000e+00  6.4580714415215373e-04 -9.8407054750068035e-01 0.0000000000000000e+00  1.2841727676212722e-03 -8.4627374428671365e-01 0.0000000000000000e+00  3.3733803963920117e-03 -8.4583609960962480e-01 0.0000000000000000e+00  -2.2212691775495008e-03 -5.8017763671263212e-01 0.0000000000000000e+00  -7.7775525548273716e-04 -9.7984468529022606e-01 0.0000000000000000e+00  -1.2216357876848605e-05 -6.5522139657730283e-01 0.0000000000000000e+00  9.9590665543436430e-04 -9.6385697287441652e-01 0.0000000000000000e+00  -4.1236378243483911e-03 -3.5810295581239376e-01 0.0000000000000000e+00  3.1256785936722986e-04 -9.9881620621652223e-01 0.0000000000000000e+00  8.6423099542200232e-04 -9.5070706532626492e-01 0.0000000000000000e+00  -1.5186590813010548e-03 -6.7524868964941709e-01 0.0000000000000000e+00  8.2866843094220322e-04 -9.5023757416148280e-01 0.0000000000000000e+00  3.0517055856426611e-03 -6.6883591913674467e-01 0.0000000000000000e+00  -1.7560769588092946e-03 -8.4658074773020564e-01 0.0000000000000000e+00  -2.2842603888389990e-03 -8.3803718740046063e-01 0.0000000000000000e+00  4.0473711234946530e-04 -9.1244969610860749e-01 0.0000000000000000e+00  -1.3428528232215797e-03 -4.7052814726547132e-01 0.0000000000000000e+00  2.0192723068579443e-04 -9.9922811353516783e-01 0.0000000000000000e+00  -4.3628231006061224e-03 -7.4596884353392823e-01 0.0000000000000000e+00  1.3282661625199088e-03 -8.1275183877604373e-01 0.0000000000000000e+00  -2.2487963188562166e-03 -7.3192746039806011e-01 0.0000000000000000e+00  -1.8096963703551072e-03 -7.1400535253629072e-01 0.0000000000000000e+00  -8.2301237739583477e-04 -9.3302518197805051e-01 0.0000000000000000e+00  -6.7438393203334002e-05 -9.9998933553566383e-01 0.0000000000000000e+00  4.4784858545951767e-03 -5.2862400212334348e-01 0.0000000000000000e+00  3.4858900943224302e-04 -9.8264848363480151e-01 0.0000000000000000e+00  4.6253280674274401e-03 -1.2717309165923568e-01 0.0000000000000000e+00  -4.4737101393263132e-05 -1.3085936604111773e-01 0.0000000000000000e+00  1.9425850615870655e-03 -9.5695573414459556e-01 0.0000000000000000e+00  1.1380514063621949e-03 -9.5580129064101405e-01 0.0000000000000000e+00  3.1516032270521577e-03 -5.7442995118638140e-01 0.0000000000000000e+00  -4.2334351863836384e-03 -5.5888546280690654e-01 0.0000000000000000e+00  -3.8965216975575534e-04 -9.9127356671883582e-01 0.0000000000000000e+00  1.8407079306342888e-03 -5.9072613563216259e-01 0.0000000000000000e+00  5.9400994748203817e-03 -3.6860963171629579e-01 0.0000000000000000e+00  -2.3037829550838496e-03 -9.0073120326517819e-01 0.0000000000000000e+00  3.4005101196561416e-03 -7.7000089806767169e-01 0.0000000000000000e+00  5.7846594221606096e-03 -3.7664696594853070e-01 0.0000000000000000e+00  1.7195248655801081e-03 -5.9058999934049550e-01 0.0000000000000000e+00  -1.2594391228963886e-03 -9.7895766194930522e-01 0.0000000000000000e+00  1.4802409591155308e-04 -9.8321689378319010e-01 0.0000000000000000e+00  -2.5601235378714948e-03 -8.9923217643945752e-01 0.0000000000000000e+00  2.8747872856440537e-03 -7.7246977880070999e-01 0.0000000000000000e+00  1.2400662394862483e-04 -9.9893563264537377e-01 0.0000000000000000e+00  2.6929597574165687e-04 -9.9878550112566222e-01 0.0000000000000000e+00  4.3186455660537137e-03 -4.1626318081710090e-01 0.0000000000000000e+00  -9.9925998737582233e-04 -9.1477430168532647e-01 0.0000000000000000e+00  -1.0054891526884990e-03 -9.8691429773687445e-01 0.0000000000000000e+00  -2.1160970366156800e-03 -8.9565488640287694e-01 0.0000000000000000e+00  2.2025785056547370e-03 -7.8441246361655637e-01 0.0000000000000000e+00  5.1411580892169462e-03 -7.4100996019645893e-01 0.0000000000000000e+00  -2.0505243098729586e-03 -9.0865538965053883e-01 0.0000000000000000e+00  -8.0985576313082064e-04 -8.8287152797874957e-01 0.0000000000000000e+00  1.1668835089745366e-03 -9.1609416080682660e-01 0.0000000000000000e+00  2.5765778822499641e-03 -8.4541814281797267e-01 0.0000000000000000e+00  7.3370427516500358e-04 -7.7689515052098812e-01 0.0000000000000000e+00  -3.7045631537069856e-03 -6.8621503554016217e-01 0.0000000000000000e+00  -4.1711708635000511e-03 -2.6627209682880337e-01 0.0000000000000000e+00  -3.9389291718766178e-03 -2.7864471924070106e-01 0.0000000000000000e+00  3.0790109516134062e-03 -4.9213669145925637e-01 0.0000000000000000e+00  7.7168431608565236e-04 -9.9232179571065449e-01 0.0000000000000000e+00  4.5132427359328986e-04 -9.7984675566332402e-01 0.0000000000000000e+00  2.4770671392481541e-04 -9.9658267509246468e-01 0.0000000000000000e+00  -2.5765684072616007e-03 -6.0067802300121498e-01 0.0000000000000000e+00  4.3130195572091863e-03 -1.7457387239976635e-01 0.0000000000000000e+00  -8.7179011503477066e-04 -6.1457923219755284e-01 0.0000000000000000e+00  5.8109665815403444e-04 -9.6009548153835156e-01 0.0000000000000000e+00  -2.5735895890446059e-03 -8.4754466562102426e-01 0.0000000000000000e+00  -2.3335226569017320e-03 -8.1475721537886248e-01 0.0000000000000000e+00  7.6236174632739184e-04 -7.7989221312721246e-01 0.0000000000000000e+00  -1.2543863082316031e-03 -8.3684383576480026e-01 0.0000000000000000e+00  1.4018949714671158e-03 -9.0316016651287689e-01 0.0000000000000000e+00  -2.4305986352544939e-03 -8.4158933173621442e-01 0.0000000000000000e+00  3.7814948951092608e-03 -7.7508900853219598e-01 0.0000000000000000e+00  -1.8096698007454455e-03 -8.5154601045141731e-01 0.0000000000000000e+00  -1.2382455162380790e-03 -9.2651234537913008e-01 0.0000000000000000e+00  1.9926216819729503e-04 -9.9916302553119785e-01 0.0000000000000000e+00  6.0958832589630418e-04 -9.8198740373481219e-01 0.0000000000000000e+00  3.6673658311592305e-04 -9.8194146398489668e-01 0.0000000000000000e+00  -2.3629951345420785e-03 -8.5729476969462060e-01 0.0000000000000000e+00  -2.5681755415159768e-03 -5.8106199495326716e-01 0.0000000000000000e+00  1.7875166972147749e-04 -9.9804175671034723e-01 0.0000000000000000e+00  1.5377193370302855e-04 -9.5811264455545708e-01 0.0000000000000000e+00  -1.9515528557054740e-03 -8.9860275899259467e-01 0.0000000000000000e+00  -1.5023688105115507e-03 -9.6429781009468041e-01 0.0000000000000000e+00  -5.0183492639099825e-04 -9.8497186041496387e-01 0.0000000000000000e+00  2.0522069566940859e-03 -9.0316377025666106e-01 0.0000000000000000e+00  7.4197953219184987e-04 -8.9352087524268542e-01 0.0000000000000000e+00  -3.5676417658891402e-03 -7.6800162585291754e-01 0.0000000000000000e+00  3.6397809774918466e-03 -3.9049097623957502e-01 0.0000000000000000e+00  5.7351554787767878e-03 -3.1360788638651127e-01 0.0000000000000000e+00  4.2634326543456447e-03 -5.7459672996245370e-01 0.0000000000000000e+00  -1.6491386225078730e-04 -9.9248087810486663e-01 0.0000000000000000e+00  6.2484071313495537e-04 -9.9355547120953336e-01 0.0000000000000000e+00  7.7422236619745233e-05 -7.5528540757699547e-01 0.0000000000000000e+00  -2.6163598322894847e-03 -4.2696942708963176e-01 0.0000000000000000e+00  -4.0258485763663976e-04 -4.7295492526220073e-01 0.0000000000000000e+00  -1.5436973821621180e-03 -7.3128353990553596e-01 0.0000000000000000e+00  2.6883130451819115e-03 -6.4167858747588202e-01 0.0000000000000000e+00  1.8950008131618790e-03 -6.7924785512265240e-01 0.0000000000000000e+00  1.0244003242129707e-03 -7.8489458788603916e-01 0.0000000000000000e+00  -5.0239585560150554e-04 -9.5094707414223079e-01 0.0000000000000000e+00  3.7198237223812214e-07 -1.0000646265902104e+00 0.0000000000000000e+00  1.2627163643310624e-03 -9.4259209367304164e-01 0.0000000000000000e+00  3.7018919556243146e-03 -6.6271737447331958e-01 0.0000000000000000e+00  -2.0470815254136632e-03 -9.5014121176809019e-01 0.0000000000000000e+00  9.5642160626845107e-04 -9.7129454888781663e-01 0.0000000000000000e+00  2.3987059471291643e-03 -8.0409982905584254e-01 0.0000000000000000e+00  -2.6644060849304596e-03 -7.0036616770562932e-01 0.0000000000000000e+00  2.2844013371468019e-03 -9.3703073637605017e-01 0.0000000000000000e+00  3.4658412586058077e-03 -4.8828573823920407e-01 0.0000000000000000e+00  -8.0249631514935462e-05 -9.9999340043948914e-01 0.0000000000000000e+00  2.3270170663391987e-05 -9.9876920331809993e-01 0.0000000000000000e+00  1.2748002069392916e-03 -6.6373620944705358e-01 0.0000000000000000e+00  -3.6999711359137488e-03 -4.8690452439546783e-01 0.0000000000000000e+00  -1.0614686397357742e-03 -9.6456770168969030e-01 0.0000000000000000e+00  -1.5260258988806230e-03 -7.9827169029944578e-01 0.0000000000000000e+00  4.2014026611466582e-03 -7.3072944729660017e-01 0.0000000000000000e+00  2.3267185660964529e-03 -7.0095658124278937e-01 0.0000000000000000e+00  1.1700745140020841e-03 -9.4308858968966014e-01 0.0000000000000000e+00  1.9180761923443812e-03 -9.3067170194197801e-01 0.0000000000000000e+00  3.2803251083423079e-03 -3.7877493455968703e-01 0.0000000000000000e+00  8.9908742735479805e-04 -8.8971266695860896e-01 0.0000000000000000e+00  2.6674587282839446e-03 -6.5816489400408751e-01 0.0000000000000000e+00  -4.3492934653295012e-03 -4.2073398143086338e-01 0.0000000000000000e+00  2.6660842225503870e-03 -5.9436783201242116e-01 0.0000000000000000e+00  4.3850987374230987e-03 -4.2747627669078747e-01 0.0000000000000000e+00  -4.1356656719478968e-03 -5.0114101128113497e-01 0.0000000000000000e+00  1.9473746209875548e-04 -9.9722827339143771e-01 0.0000000000000000e+00  -8.0671577089408419e-05 -9.9999809685777663e-01 0.0000000000000000e+00  -2.7466929447360344e-04 -9.2946119513257530e-01 0.0000000000000000e+00  -2.0631358770273334e-04 -9.9924575877228294e-01 0.0000000000000000e+00  -3.5230666702532609e-03 -7.4941483696061550e-01 0.0000000000000000e+00  -1.5520663099897192e-03 -8.8293303240901178e-01 0.0000000000000000e+00  9.0329324252147458e-04 -8.0854379469545223e-01 0.0000000000000000e+00  2.6219372577390709e-04 -2.8256904581545583e-01 0.0000000000000000e+00  3.0674333470724624e-03 -3.1368987642770790e-01 0.0000000000000000e+00  -1.0326192336611584e-03 -9.8526517596618568e-01 0.0000000000000000e+00  2.1927994522739080e-03 -7.1897122541599734e-01 0.0000000000000000e+00  3.1118205985576353e-03 -8.5282482758374378e-01 0.0000000000000000e+00  7.4786751275497665e-04 -9.1669936617516701e-01 0.0000000000000000e+00  2.9561788816112045e-03 -7.9084343368797660e-01 0.0000000000000000e+00  2.4481564630361996e-03 -6.4051861557145584e-01 0.0000000000000000e+00  -7.2075353218623017e-04 -9.2845429665581580e-01 0.0000000000000000e+00  -7.5365549098377338e-04 -9.7580895175706517e-01 0.0000000000000000e+00  -1.1972470452689121e-03 -9.8091730530299259e-01 0.0000000000000000e+00  -1.5385208487869173e-03 -9.5659203205165233e-01 0.0000000000000000e+00  3.2535963236482446e-03 -8.0871773654064538e-01 0.0000000000000000e+00  -2.1279110709451210e-03 -8.6931895570780038e-01 0.0000000000000000e+00  -2.7367146808507381e-03 -8.7242609375951119e-01 0.0000000000000000e+00  3.8501845279341365e-04 -8.0994572919136254e-01 0.0000000000000000e+00  -2.1322819587898945e-03 -5.2629226053399925e-01 0.0000000000000000e+00  -6.8457728540782803e-04 -5.2043995105770102e-01 0.0000000000000000e+00  -2.3587983181165839e-03 -6.1148611661459540e-01 0.0000000000000000e+00  2.4996353114078995e-03 -3.3142417290881454e-01 0.0000000000000000e+00  3.8890671114350794e-03 -4.1954933699344721e-01 0.0000000000000000e+00  1.3204248968218257e-04 -9.9136329228460385e-01 0.0000000000000000e+00  4.9652624962237268e-03 -6.6775490614446667e-02 0.0000000000000000e+00  -2.4067223498133595e-04 -6.7620156244243002e-02 0.0000000000000000e+00  1.2507949185514011e-04 -9.9981723068478989e-01 0.0000000000000000e+00  -5.2817015379753030e-03 -5.5651811680925067e-01 0.0000000000000000e+00  1.1773552773796936e-03 -5.5897573201484907e-01 0.0000000000000000e+00  -4.6996366917835264e-03 -5.9826354549095551e-01 0.0000000000000000e+00  -3.0930097211436802e-03 -7.1910593777518361e-01 0.0000000000000000e+00  -1.5960307691608999e-03 -9.3058754925037368e-01 0.0000000000000000e+00  2.7930315803709194e-04 -8.8745307778049431e-01 0.0000000000000000e+00  -6.0771931856717920e-04 -9.9012567301137311e-01 0.0000000000000000e+00  5.3572595874548656e-04 -9.9214587164069534e-01 0.0000000000000000e+00  -5.9897062174141258e-04 -9.6502409376710108e-01 0.0000000000000000e+00  -2.0817274074755865e-03 -9.2528801067288291e-01 0.0000000000000000e+00  -1.8461765765472304e-04 -9.9994927163243386e-01 0.0000000000000000e+00  1.6711371069286218e-04 -9.9278728212892509e-01 0.0000000000000000e+00  -1.4760258949935157e-03 -9.6476399838510718e-01 0.0000000000000000e+00  -5.6277350489797318e-04 -9.8968652232596988e-01 0.0000000000000000e+00  2.2662826333891273e-03 -7.3078759611592103e-01 0.0000000000000000e+00  -1.8845159967415537e-03 -9.2403067093173619e-01 0.0000000000000000e+00  5.1859870079861703e-03 -5.3661677428118981e-01 0.0000000000000000e+00  2.9531023835405734e-03 -1.9434718888980174e-01 0.0000000000000000e+00  2.4362036897044260e-03 -1.9352455517046871e-01 0.0000000000000000e+00  -2.1423266048228276e-04 -5.4287102148461874e-01 0.0000000000000000e+00  -1.6464721858087041e-03 -6.3527880726732322e-01 0.0000000000000000e+00  2.5198471529385147e-03 -7.3366133608662787e-01 0.0000000000000000e+00  6.5332339375157034e-04 -9.9382163775476495e-01 0.0000000000000000e+00  -4.7446557381627480e-04 -9.7296167834841218e-01 0.0000000000000000e+00  4.2031909151618585e-04 -9.9530317889468256e-01 0.0000000000000000e+00  -3.2452872519531106e-04 -6.2339280723499979e-01 0.0000000000000000e+00  -8.7932746670668638e-04 -9.5217415974789954e-01 0.0000000000000000e+00  1.0677757936931043e-03 -9.4788928214458368e-01 0.0000000000000000e+00  3.6406585732755570e-03 -8.1005113254744820e-01 0.0000000000000000e+00  -3.0289548870772176e-03 -7.2435861124553935e-01 0.0000000000000000e+00  -5.2957344300752496e-04 -8.0331138014413628e-01 0.0000000000000000e+00  1.9125740997121554e-03 -9.2102186889493165e-01 0.0000000000000000e+00  4.4616813414689871e-03 -2.1159519938106394e-01 0.0000000000000000e+00  -5.2536105121501128e-03 -2.9741734504242562e-01 0.0000000000000000e+00  5.0051436374709546e-04 -9.8000809114075160e-01 0.0000000000000000e+00  1.2171570822228084e-03 -9.7739072418578654e-01 0.0000000000000000e+00  -9.8426238088414331e-04 -8.9321386075732301e-01 0.0000000000000000e+00  5.7434612208395741e-04 -9.7706841220455742e-01 0.0000000000000000e+00  -3.3231242430398211e-04 -9.9504721459762124e-01 0.0000000000000000e+00  2.9804823706089389e-03 -4.5045403221127245e-01 0.0000000000000000e+00  2.5883824189947419e-03 -8.5688395546973850e-01 0.0000000000000000e+00  3.8494045838468605e-03 -8.9204036486404092e-01 0.0000000000000000e+00  -4.6030443357270023e-04 -7.3761754593665207e-01 0.0000000000000000e+00  -4.9374722982276076e-04 -9.9371265894304517e-01 0.0000000000000000e+00  1.1238345083465981e-03 -8.7182335686858425e-01 0.0000000000000000e+00  1.4170023290503621e-03 -9.2689622964123475e-01 0.0000000000000000e+00  1.2671161587045621e-03 -8.8848351263907877e-01 0.0000000000000000e+00  1.0835173348859861e-03 -9.3000469399477859e-01 0.0000000000000000e+00  -2.6447760779590435e-03 -8.5157950681030969e-01 0.0000000000000000e+00  2.5534888777173359e-04 -9.9925463560552696e-01 0.0000000000000000e+00  -3.2313596239652576e-04 -9.9331286475432867e-01 0.0000000000000000e+00  1.4175517737624876e-03 -6.9616475812185186e-01 0.0000000000000000e+00  3.6799598204405592e-03 -4.7281359940488887e-01 0.0000000000000000e+00  2.3526381876004532e-04 -8.7625293633090329e-01 0.0000000000000000e+00  2.2540727135332839e-03 -8.0164739342459113e-01 0.0000000000000000e+00  -6.5496730934744285e-04 -9.9020733337409561e-01 0.0000000000000000e+00  1.0029410764800240e-03 -9.7035328339668181e-01 0.0000000000000000e+00  -2.4503972209746205e-03 -9.2156166033733300e-01 0.0000000000000000e+00  -7.5994993835251656e-04 -9.8268421254759697e-01 0.0000000000000000e+00  8.4600725610850525e-04 -9.7276702293614659e-01 0.0000000000000000e+00  1.7529598613964525e-03 -4.5876429369295424e-01 0.0000000000000000e+00  1.6577729925659201e-03 -7.6291501549422702e-01 0.0000000000000000e+00  4.4707639279391032e-03 -8.0079444990144988e-01 0.0000000000000000e+00  3.3924225723380719e-04 -9.9683951215331323e-01 0.0000000000000000e+00  6.4768365364165081e-04 -9.6600424572822274e-01 0.0000000000000000e+00  -9.3262844567076897e-04 -9.6458813108339414e-01 0.0000000000000000e+00  2.2766734149501366e-03 -7.1272620466842695e-01 0.0000000000000000e+00  1.0807600915007376e-03 -8.8539583615056483e-01 0.0000000000000000e+00  -3.5007080283706582e-03 -7.9167197766022490e-01 0.0000000000000000e+00  -2.0797882914369570e-03 -8.1976742699313332e-01 0.0000000000000000e+00  -6.4243794328018849e-04 -9.8140372554252309e-01 0.0000000000000000e+00  1.4093975386843260e-03 -7.6328400399771013e-01 0.0000000000000000e+00  1.2759690079223729e-03 -9.6673966148207513e-01 0.0000000000000000e+00  2.1215660066786768e-04 -9.8760639926799021e-01 0.0000000000000000e+00  8.2607437284082375e-05 -9.9413331725229537e-01 0.0000000000000000e+00  2.2765766323051828e-03 -8.6458413579185311e-01 0.0000000000000000e+00  -1.2875683889413680e-03 -5.1494638394771353e-01 0.0000000000000000e+00  -4.9110712785649727e-05 -7.6640376365594487e-01 0.0000000000000000e+00  2.2922645605261138e-03 -8.6513771000734652e-01 0.0000000000000000e+00  1.8329276720505452e-04 -3.1434018937640579e-01 0.0000000000000000e+00  -5.6594305962587299e-03 -1.8813103009421256e-01 0.0000000000000000e+00  -2.1378265012511749e-03 -8.5140155134113082e-01 0.0000000000000000e+00  1.0562231993932469e-03 -9.3630693902504947e-01 0.0000000000000000e+00  -1.3415857805443299e-04 -8.8761883555622001e-01 0.0000000000000000e+00  -6.9002320335372763e-04 -9.0870236449960673e-01 0.0000000000000000e+00  3.5324126590015326e-03 -4.0362763763484144e-01 0.0000000000000000e+00  9.1984537561096147e-05 -9.9997897203692909e-01 0.0000000000000000e+00  7.5542833261008080e-04 -6.4134856033544063e-01 0.0000000000000000e+00  -3.1937619510239434e-03 -5.3196885730014309e-01 0.0000000000000000e+00  -3.3556343425138468e-03 -5.9420430054948314e-01 0.0000000000000000e+00  -2.3029587877816532e-03 -6.1331440600439813e-01 0.0000000000000000e+00  -4.8454688151976510e-03 -6.6224247149401250e-01 0.0000000000000000e+00  1.4570105039912601e-03 -8.6806187003309698e-01 0.0000000000000000e+00  -2.3473303109720067e-03 -8.7818241508567940e-01 0.0000000000000000e+00  -5.4587797598815158e-04 -9.3281445202810354e-01 0.0000000000000000e+00  -7.1376515058813039e-04 -9.7049100975384095e-01 0.0000000000000000e+00  1.0606073578185160e-03 -2.6317548106778166e-01 0.0000000000000000e+00  1.7257902065470065e-03 -3.5993306896278432e-01 0.0000000000000000e+00  -2.1979533431661646e-03 -3.2086564641125476e-01 0.0000000000000000e+00  7.2513250083501568e-04 -9.5173613665752532e-01 0.0000000000000000e+00  -1.7728805155505997e-04 -9.6329708242043555e-01 0.0000000000000000e+00  -2.8576906411679204e-03 -7.9499694176037428e-01 0.0000000000000000e+00  4.0090336519144065e