<?xml version="1.0"?>
<VTKFile type="UnstructuredGrid"  version="0.1"  >
<UnstructuredGrid>
<Piece  NumberOfPoints="1385" NumberOfCells="2640">
<Points>
<DataArray  type="Float64"  NumberOfComponents="3"  format="ascii">0 0 0  1 0 0  1 1 0  0 1 0  0.5 0 0  1 0.5 0  0.5 1 0  0 0.5 0  0.5 0.5 0  0 0.25 0  0.25 0 0  0.25 1 0  0 0.75 0  1 0.25 0  0.75 0 0  1 0.75 0  0.75 1 0  0.7083333333333333 0.2916666666666667 0  0.2916666666666666 0.7083333333333334 0  0.375 0.25 0  0.75 0.625 0  0.2569444444444444 0.4652777777777778 0  0.5366379310344828 0.7535919540229885 0  0.1875 0.1875 0  0.8125 0.8125 0  0.869047619047619 0.375 0  0.1450441919191919 0.6052714646464646 0  0.375 0.8690476190476191 0  0.5526960784313725 0.1825980392156862 0  0.8385416666666666 0.1614583333333334 0  0.1614583333333333 0.8385416666666667 0  0.6736111111111112 0.4652777777777778 0  0.1367521367521368 0.3477564102564102 0  0.6570970491253563 0.8648656830417855 0  0.5102479397556124 0.3386260301221938 0  0.3654513888888889 0.5737847222222222 0  0.6929750044954185 0.1362784921584263 0  0.388576102743835 0.411911725237599 0  0.6091269841269842 0.5942460317460317 0  0.875 0.6875 0  0.427278890279516 0.119889445139758 0  0.8544456845238095 0.5213913690476191 0  0.125 0 0  0 0.125 0  1 0.875 0  0.875 1 0  0.1280008648150532 0.4769292340226777 0  0.2695382451711197 0.3321750950221553 0  0.7031567235715964 0.7447810921428012 0  0.625 0 0  0.375 0 0  0.125 1 0  0.875 0 0  0 0.375 0  0 0.625 0  1 0.375 0  0.375 1 0  1 0.125 0  0 0.875 0  0.625 1 0  1 0.625 0  0.2979288363930608 0.1201429454643536 0  0.410919540229885 0.7484605911330049 0  0.5325041980395562 0.878905151526474 0  0.4831670727569156 0.6331060043826487 0  0.1735997378973042 0.7204747378973043 0  0.2534919507575758 0.5772372159090909 0  0.2633928571428572 0.8876488095238095 0  0.8199404761904761 0.2730654761904762 0  0.75830270586982 0.3919383189517417 0  0.5750282248382511 0.4237522353023667 0  0.6008360210023379 0.2794828358598495 0  0.08163442644334186 0.6821295860397322 0  0.08333333333333333 0.1875 0  0.2028380815996574 0.08844602719988583 0  0.2766521142611967 0.2325436572164097 0  0.90625 0.78125 0  0.890625 0.890625 0  0.7545696325008384 0.8973565441669461 0  0.5625 0.08086590340834317 0  0.09077380952380953 0.09077380952380952 0  0.4610923478694773 0.209034015149656 0  0.7542527598351648 0.5248380520595106 0  0.6459235536037465 0.3619913988405765 0  0.7560381768882634 0.20506142233852 0  0.07073252688172042 0.8125 0  0.0924753097241701 0.9078102849914793 0  0.9292674731182795 0.1875 0  0.9075246902758297 0.09218971500852073 0  0.8125 0.07073252688172045 0  0.2400955776842301 0.7869705776842302 0  0.9121050213379069 0.2781978201831695 0  0.7916878157143976 0.7239689078571988 0  0.9345238095238094 0.4375 0  0.4375 0.9345238095238095 0  0.3725616989755203 0.6651895248862173 0  0.06536271996350887 0.5625 0  0.9348362560379583 0.5625 0  0.456646798987055 0.8277247094351965 0  0.1875 0.9355758238725954 0  0.6169761231634859 0.6939779188977889 0  0.6226854751147515 0.7827911461419014 0  0.3305695598137626 0.7901697871282585 0  0.5865305325818898 0.5101085479043448 0  0.6622701297028378 0.2177663989757395 0  0.1354166666666667 0.2591702279202279 0  0 0.3125 0  0.2094429575680048 0.3936361846162499 0  0.836666296419157 0.607917407161686 0  0.6875 1 0  0.214261555450504 0.6492551722020035 0  0 0.4375 0  0.07731537126068377 0.40625 0  0.3427725432967068 0.4879566233699599 0  0.3550792513951871 0.3331953632609953 0  0.4462473953896857 0.2887834789342508 0  0.4747801464819794 0.417386052030127 0  0.8229836475148948 0.4443292349237342 0  0.7322605135514757 0.8199240278289671 0  0.6756431877205955 0.5468989748126787 0  0.1968419507215863 0.5194573482612496 0  0.3285590277777778 0.9345238095238095 0  0.8125 1 0  0.4198917601920009 0.5134893045331258 0  0.5232405503206691 0.2595791787880157 0  1 0.9375 0  0.1987510870015086 0.3025185951894431 0  0.5625 1 0  0.6005390654136388 0.9228110509230952 0  0.6411254848194414 0.07704872765442942 0  0.3357233162523242 0.1855113224530532 0  0.6730653396610877 0.6393887462324165 0  0.310966987234063 0.6240019765311626 0  0.7368737836204349 0.07457755202327881 0  0.6192316414418171 0.1485238406378594 0  0.5432429670607106 0.678552703844006 0  0.4754371679695679 0.7103946803120881 0  0.07501324890749672 0.3043839897335739 0  0.5358146975860403 0.5688321463205916 0  0.3115271739500156 0.3982137365971444 0  0.3625191397122174 0.0767854603650549 0  0.5024029442563831 0.1264128223758444 0  0.4375 0 0  0.4699946908887376 0.06379961173775725 0  0.9375 0.71875 0  0.9272105898044465 0.635671179608893 0  0.9375 1 0  0.6690971819568612 0.9331530898202766 0  0.1073454944778885 0.7499206387638554 0  0.8699082999280406 0.2232403652524313 0  0.5773118091863964 0.3548027349159383 0  0.1354166666666667 0.1428571428571428 0  0.3125 0 0  0.8241684193077341 0.9257452995055244 0  0.4352314948354036 0.3586940847489378 0  0.4351301473778832 0.5819726043539077 0  0.8073232928518163 0.3419398170341962 0  0.7775949246947366 0.1298519409204575 0  0.6875 0 0  0.7413513991851041 0.457933324954483 0  0.939453125 0.841796875 0  0.5630355154606987 0.8171875156478349 0  0.9345238095238095 0.3461466592368577 0  0.9375 0 0  1 0.0625 0  0.0625 1 0  0 0.9375 0  0.06552178593177167 0.4969053669623468 0  0.1424866619031703 0.4130277709291224 0  0.1275287182444726 0.5422946908002588 0  0.2637686595586339 0.06413888464529549 0  0.2524263535491086 0.1697437503243817 0  0.7367218397988525 0.6888573970660841 0  0.0625 0 0  0 0.0625 0  0.8463594539285995 0.7578283617857982 0  0.3128751192101563 0.2851997374369947 0  0.4015281788351144 0.1806421385113692 0  0.1910251795116588 0.4553332197174453 0  0.287797471442006 0.5222621440543902 0  0.3962628745986055 0.8097380085535307 0  0.3505895299554843 0.7304878890838692 0  0.5019151500495276 0.9356042615328103 0  0.9374389419410134 0.4999931039076005 0  0.3125 1 0  0.1875 1 0  1 0.5625 0  0.4375 1 0  1 0.3125 0  1 0.4375 0  0.8125 0 0  1 0.1875 0  0.5625 0 0  0.1875 0 0  0 0.1875 0  0 0.5625 0  0 0.6875 0  0 0.8125 0  1 0.6875 0  1 0.8125 0  0.8021696218581627 0.6612893947866073 0  0.06154922295426143 0.6239401126946708 0  0.9359375 0.9359375 0  0.4666158024849896 0.7691515918155014 0  0.2318201265217025 0.7064974250277525 0  0.1565954253579966 0.6635489312486841 0  0.1598132503680848 0.7787147500325552 0  0.3146529991605639 0.8510876378205265 0  0.1461873209418733 0.05982804528877814 0  0.06109554988524315 0.2446551776247686 0  0.8054950308560754 0.5564226538848541 0  0.470541749491976 0.8853316336952531 0  0.6948472567465137 0.4042308563372457 0  0.8802828472348889 0.4658893256343853 0  0.6788075634946739 0.7974194205806069 0  0.2155048659603867 0.2428201584940968 0  0.8131223143423806 0.2132171049028394 0  0.4330798005432235 0.6671274900735726 0  0.6015279126162613 0.2187368078743274 0  0.8061636571464289 0.8703766630361714 0  0.7008230445061776 0.3478568388444072 0  0.8638466246958771 0.3147095987735538 0  0.204801534004265 0.8789209409594009 0  0.2449006736431132 0.9424182882803838 0  0.7611268409371427 0.2643056884799992 0  0.7552800864046191 0.7678006649959446 0  0.5983639638906616 0.864113435029236 0  0.1956559506814437 0.577281203577426 0  0.3527670268164207 0.1320469097565204 0  0.7530364577483248 0.3262386077083089 0  0.4535919187979363 0.4690107087451527 0  0.8824869791666666 0.8336588541666666 0  0.8814453125 0.9451171875 0  0.5582987942628019 0.622421666543858 0  0.6817532446064828 0.6939001801354731 0  0.3830295138888889 0.9450968952922078 0  0.4140603937012541 0.05211333372716105 0  0.5535864501303013 0.3060591985391672 0  0.6560130086346878 0.2729726562211558 0  0.890203140221684 0.5948314305427268 0  0.7043857725999024 0.593980890020804 0  0.5105843922695152 0.8016828014338627 0  0.05365910753708378 0.7315110031682004 0  0.616904573672261 0.4621186633436136 0  0.5338511646455415 0.387875898899613 0  0.5231769258947843 0.4477682463140762 0  0.650302973237622 0.7370722302085519 0  0.3927483139621257 0.4662414504529014 0  0.8034595960585199 0.4972538342758211 0  0.7738337841682438 0.9496376207663251 0  0.7193737507158268 0.954685447650112 0  0.482525916480686 0.5528257169991676 0  0.2533501157346781 0.2809495420003238 0  0.3118487924482243 0.5702930126570319 0  0.6257598847669529 0.4104163315430518 0  0.1354166666666667 0.1955605158730158 0  0.04166666666666666 0.15625 0  0.3956448985530264 0.6174149462065157 0  0.8102897701818546 0.3938784238208349 0  0.2641154190013625 0.8344469561943118 0  0.642852220770013 0.5068794586563659 0  0.05271458179508221 0.355846947336007 0  0.7021551360070266 0.8921457280225779 0  0.5692125776683765 0.1328512638850284 0  0.5206162811937602 0.04865158770992991 0  0.6001838442201555 0.04540556991297563 0  0.2597716608242787 0.4118346398477178 0  0.4040584599473195 0.3179589136784675 0  0.1480337679295207 0.8941560631483065 0  0.1344356707112281 0.9466251177415842 0  0.7114696411829317 0.4983917389078826 0  0.7585704698442475 0.5751926345944629 0  0.2189131956390871 0.04022068508159698 0  0.2476935455192043 0.1123642267635843 0  0.185995005654517 0.1365524537205238 0  0.6223414373308711 0.643380839165121 0  0.5732602596637543 0.7190051747306219 0  0.268358222364537 0.6586246524467934 0  0.3265879848129173 0.2369791782191225 0  0.1267095595787346 0.7034787238999181 0  0.1115202922226038 0.6421997933884982 0  0.3128688392940203 0.07260997451790079 0  0.550724900485678 0.9253360991633187 0  0.7142608810459105 0.2384904702214873 0  0.7045869185243887 0.1871826897887429 0  0.890625 0.734375 0  0.953125 0.765625 0  0.2111812642821677 0.8286209446459138 0  0.9590293078204457 0.09375 0  0.953431269039847 0.1435719386408004 0  0.04097069217955424 0.90625 0  0.04656873096015299 0.8564280613591996 0  0.1078743037981226 0.8541621766048062 0  0.8921256962018773 0.1458378233951939 0  0.8521576979194619 0.1084496634207678 0  0.8655663982740958 0.05464346096571447 0  0.04005659640905543 0.09375 0  0.1001448316533417 0.04246776244228261 
[...]
<PointData  Vectors="f_8394-0-1"> 
<DataArray  type="Float64"  Name="f_8394-0-1"  NumberOfComponents="3" format="ascii">4.2163011210202446e-03 -1.7421179424746271e-02 0.0000000000000000e+00  1.4856253971606876e-03 -8.4277674626668175e-01 0.0000000000000000e+00  2.4091719040671227e-03 -9.1279135535915323e-01 0.0000000000000000e+00  9.2181636374161907e-06 -8.4526528911490684e-01 0.0000000000000000e+00  3.0521600212002481e-03 -4.8612000428745772e-01 0.0000000000000000e+00  -1.3573914809117404e-04 -9.9711484687848551e-01 0.0000000000000000e+00  1.0219168942326995e-04 -9.9761731994709280e-01 0.0000000000000000e+00  5.2836972802694504e-03 -4.8435862076723757e-01 0.0000000000000000e+00  -2.1276777421822268e-03 -8.3692780933179145e-01 0.0000000000000000e+00  1.6645645711209633e-03 -2.5576761087803895e-01 0.0000000000000000e+00  4.0884519365727012e-03 -2.5521767809252627e-01 0.0000000000000000e+00  -9.8179702464798457e-04 -9.4593966619714054e-01 0.0000000000000000e+00  1.0329060131752904e-03 -6.8635285389867129e-01 0.0000000000000000e+00  -1.7675798390371922e-03 -9.4668132497740309e-01 0.0000000000000000e+00  -1.6290935402271667e-03 -6.7514120952857970e-01 0.0000000000000000e+00  1.0568166518917232e-03 -9.8539934849255972e-01 0.0000000000000000e+00  6.3898449753844316e-04 -9.8349972342736836e-01 0.0000000000000000e+00  1.2912645894772590e-03 -8.4678308708336214e-01 0.0000000000000000e+00  3.3783495842133471e-03 -8.4577797084165707e-01 0.0000000000000000e+00  -2.2259792580041626e-03 -5.8047831524006432e-01 0.0000000000000000e+00  -7.7242741337052445e-04 -9.7995338873713322e-01 0.0000000000000000e+00  1.4265260827039938e-06 -6.5534459810541945e-01 0.0000000000000000e+00  1.0079990300325692e-03 -9.6380169440417651e-01 0.0000000000000000e+00  -4.1100081547922364e-03 -3.5821649018798840e-01 0.0000000000000000e+00  3.2054264496356177e-04 -9.9858999543410110e-01 0.0000000000000000e+00  8.5526142781612580e-04 -9.5116017554584431e-01 0.0000000000000000e+00  -1.5194907138969815e-03 -6.7515775569552994e-01 0.0000000000000000e+00  8.2677082667426127e-04 -9.5002248867376105e-01 0.0000000000000000e+00  3.0575123807761173e-03 -6.6931234607224455e-01 0.0000000000000000e+00  -1.7587594311397198e-03 -8.4724513177127247e-01 0.0000000000000000e+00  -2.2850462774161584e-03 -8.3781351663067039e-01 0.0000000000000000e+00  4.1189487354414966e-04 -9.1276472205716341e-01 0.0000000000000000e+00  -1.3633802094662195e-03 -4.7056976744191131e-01 0.0000000000000000e+00  1.9772828469377668e-04 -9.9897986953055407e-01 0.0000000000000000e+00  -4.3641647297884001e-03 -7.4631592232875832e-01 0.0000000000000000e+00  1.3187757319149673e-03 -8.1284826736015647e-01 0.0000000000000000e+00  -2.2460513909671187e-03 -7.3253809023750116e-01 0.0000000000000000e+00  -1.8168298584415599e-03 -7.1422344721304842e-01 0.0000000000000000e+00  -8.2452827303082510e-04 -9.3316578789353477e-01 0.0000000000000000e+00  -6.6826592668656204e-05 -9.9995863831301501e-01 0.0000000000000000e+00  4.4816622606557444e-03 -5.2905507257885276e-01 0.0000000000000000e+00  3.4749736726846780e-04 -9.8290087611935695e-01 0.0000000000000000e+00  4.5840784743952021e-03 -1.2723557548408909e-01 0.0000000000000000e+00  -1.3416835274297984e-04 -1.3071569640780020e-01 0.0000000000000000e+00  1.9168857047280330e-03 -9.5639317266294455e-01 0.0000000000000000e+00  1.1047998780765456e-03 -9.5514844084563399e-01 0.0000000000000000e+00  3.1421236718509882e-03 -5.7442375690174929e-01 0.0000000000000000e+00  -4.2379178829817232e-03 -5.5905501931567392e-01 0.0000000000000000e+00  -3.8995853069204167e-04 -9.9120976824288221e-01 0.0000000000000000e+00  1.8478520154398548e-03 -5.9139500466417849e-01 0.0000000000000000e+00  5.9419252687401003e-03 -3.6900246835064715e-01 0.0000000000000000e+00  -2.2961176418226370e-03 -9.0030647869992886e-01 0.0000000000000000e+00  3.4078919146998399e-03 -7.7078947652756569e-01 0.0000000000000000e+00  5.7689059396424658e-03 -3.7647840752855488e-01 0.0000000000000000e+00  1.6584662205752056e-03 -5.9042563360265832e-01 0.0000000000000000e+00  -1.2622560481048151e-03 -9.7935045585484637e-01 0.0000000000000000e+00  1.5590508898211120e-04 -9.8282081878155625e-01 0.0000000000000000e+00  -2.5567396847672175e-03 -8.9995563858443806e-01 0.0000000000000000e+00  2.8848282947619985e-03 -7.7209747397648221e-01 0.0000000000000000e+00  1.0372759019761091e-04 -9.9846028480831361e-01 0.0000000000000000e+00  2.6648152767971833e-04 -9.9877447391507845e-01 0.0000000000000000e+00  4.3117778911791471e-03 -4.1655847787140099e-01 0.0000000000000000e+00  -1.0093668331903616e-03 -9.1471396025936946e-01 0.0000000000000000e+00  -1.0157540917386521e-03 -9.8667910249840263e-01 0.0000000000000000e+00  -2.1120297954791561e-03 -8.9572095964395615e-01 0.0000000000000000e+00  2.2090802549777910e-03 -7.8429087867738523e-01 0.0000000000000000e+00  5.1509022840021124e-03 -7.4103405556436641e-01 0.0000000000000000e+00  -2.0457986376940518e-03 -9.0839330608556534e-01 0.0000000000000000e+00  -8.0279289602780413e-04 -8.8341583677304936e-01 0.0000000000000000e+00  1.1659775509796910e-03 -9.1651449003396046e-01 0.0000000000000000e+00  2.5848685078816436e-03 -8.4574420149999019e-01 0.0000000000000000e+00  7.2223086836559203e-04 -7.7735239724466221e-01 0.0000000000000000e+00  -3.7120104440895862e-03 -6.8602057120659632e-01 0.0000000000000000e+00  -4.1857931154083428e-03 -2.6628514081016164e-01 0.0000000000000000e+00  -3.9337872019575351e-03 -2.7881249876101266e-01 0.0000000000000000e+00  3.0783448542043151e-03 -4.9237596623208113e-01 0.0000000000000000e+00  7.8360229428359185e-04 -9.9208065924158917e-01 0.0000000000000000e+00  4.4688723619334958e-04 -9.7940188533942052e-01 0.0000000000000000e+00  2.5065556733406408e-04 -9.9622839094690141e-01 0.0000000000000000e+00  -2.5568684724593949e-03 -6.0123618111145660e-01 0.0000000000000000e+00  4.3204180408184627e-03 -1.7460735282578838e-01 0.0000000000000000e+00  -8.6410404750135450e-04 -6.1496452390085266e-01 0.0000000000000000e+00  5.8118333810810996e-04 -9.6034097935550533e-01 0.0000000000000000e+00  -2.5845232920191918e-03 -8.4794196418208223e-01 0.0000000000000000e+00  -2.3409007828585349e-03 -8.1534742784898073e-01 0.0000000000000000e+00  7.6425129242914391e-04 -7.7964927542616547e-01 0.0000000000000000e+00  -1.2542997888804197e-03 -8.3649535360717420e-01 0.0000000000000000e+00  1.4093936773925814e-03 -9.0382252986940892e-01 0.0000000000000000e+00  -2.4221666402666486e-03 -8.4233542208582768e-01 0.0000000000000000e+00  3.7806336721627476e-03 -7.7582299439637847e-01 0.0000000000000000e+00  -1.8114736933721766e-03 -8.5136702521096541e-01 0.0000000000000000e+00  -1.2291629082191724e-03 -9.2707192249673853e-01 0.0000000000000000e+00  2.0694441862506574e-04 -9.9909984539289609e-01 0.0000000000000000e+00  6.1040369484682833e-04 -9.8232700231997327e-01 0.0000000000000000e+00  3.5711874306731950e-04 -9.8163173320533303e-01 0.0000000000000000e+00  -2.3730895648449435e-03 -8.5728629322334149e-01 0.0000000000000000e+00  -2.5876603811491802e-03 -5.8094838776010949e-01 0.0000000000000000e+00  1.7586954843185065e-04 -9.9818001788920996e-01 0.0000000000000000e+00  1.5780545725668782e-04 -9.5796284011156219e-01 0.0000000000000000e+00  -1.9431240482162271e-03 -8.9827163407238586e-01 0.0000000000000000e+00  -1.5019537971220909e-03 -9.6432254975913811e-01 0.0000000000000000e+00  -5.0383153975402939e-04 -9.8485705671287449e-01 0.0000000000000000e+00  2.0583772968308101e-03 -9.0302227483275155e-01 0.0000000000000000e+00  7.4538294824333384e-04 -8.9376967662075690e-01 0.0000000000000000e+00  -3.5922767397318922e-03 -7.6853549810277366e-01 0.0000000000000000e+00  3.6420682953736128e-03 -3.9056433405939550e-01 0.0000000000000000e+00  5.7440353906800523e-03 -3.1348440683009515e-01 0.0000000000000000e+00  4.2675856954395575e-03 -5.7469987125085775e-01 0.0000000000000000e+00  -1.6153531938781218e-04 -9.9259688840616889e-01 0.0000000000000000e+00  6.2333070020653691e-04 -9.9303637142529422e-01 0.0000000000000000e+00  7.2211415548140145e-05 -7.5522130931688247e-01 0.0000000000000000e+00  -2.6312268747966630e-03 -4.2685834864757299e-01 0.0000000000000000e+00  -4.1012202503934447e-04 -4.7294554458504334e-01 0.0000000000000000e+00  -1.5371100723433340e-03 -7.3141499737540683e-01 0.0000000000000000e+00  2.6740405571745729e-03 -6.4194963747582690e-01 0.0000000000000000e+00  1.9243393710807744e-03 -6.7960386046600296e-01 0.0000000000000000e+00  1.0158988277749748e-03 -7.8518056740188780e-01 0.0000000000000000e+00  -5.0596653751533091e-04 -9.5130168807670934e-01 0.0000000000000000e+00  1.9093997485342129e-06 -9.9985780629958554e-01 0.0000000000000000e+00  1.2636586997238908e-03 -9.4281297774173478e-01 0.0000000000000000e+00  3.6980895576445572e-03 -6.6273068828719717e-01 0.0000000000000000e+00  -2.0358412454064556e-03 -9.4983322504075152e-01 0.0000000000000000e+00  9.4405840719279099e-04 -9.7064582483381112e-01 0.0000000000000000e+00  2.3959304112780890e-03 -8.0427225969254956e-01 0.0000000000000000e+00  -2.6697251669193234e-03 -7.0075864827765044e-01 0.0000000000000000e+00  2.2351089455572293e-03 -9.3628762371307694e-01 0.0000000000000000e+00  3.4829019089992475e-03 -4.8840007960572540e-01 0.0000000000000000e+00  -8.2567787950144555e-05 -9.9953776058381893e-01 0.0000000000000000e+00  2.3904690661963324e-05 -9.9845038634590622e-01 0.0000000000000000e+00  1.2784953933714094e-03 -6.6436324266970859e-01 0.0000000000000000e+00  -3.7036127080470327e-03 -4.8718436612608923e-01 0.0000000000000000e+00  -1.0666225047656352e-03 -9.6466548453509215e-01 0.0000000000000000e+00  -1.5013708158470584e-03 -7.9826281943171096e-01 0.0000000000000000e+00  4.2110757642712104e-03 -7.3140883548520919e-01 0.0000000000000000e+00  2.3261242613684674e-03 -7.0154157939875683e-01 0.0000000000000000e+00  1.1833861721427530e-03 -9.4313277929532102e-01 0.0000000000000000e+00  1.9281673886810957e-03 -9.3066043525096709e-01 0.0000000000000000e+00  3.2626108172609247e-03 -3.7878513599799130e-01 0.0000000000000000e+00  9.0125924263914289e-04 -8.8986256184815216e-01 0.0000000000000000e+00  2.6911181616966484e-03 -6.5832117051456862e-01 0.0000000000000000e+00  -4.3777121632565807e-03 -4.2108517965373748e-01 0.0000000000000000e+00  2.7000637846298567e-03 -5.9484939942085835e-01 0.0000000000000000e+00  4.3998692405936152e-03 -4.2794935535794448e-01 0.0000000000000000e+00  -4.1384537489713713e-03 -5.0157983545867324e-01 0.0000000000000000e+00  2.0316875317967498e-04 -9.9709964215418223e-01 0.0000000000000000e+00  -8.4025163038833894e-05 -1.0000266881760760e+00 0.0000000000000000e+00  -3.1768259751457917e-04 -9.2866488675472747e-01 0.0000000000000000e+00  -2.1636604702535145e-04 -9.9886629878640543e-01 0.0000000000000000e+00  -3.5247762785388659e-03 -7.4921161580633511e-01 0.0000000000000000e+00  -1.5480257158804189e-03 -8.8353097830736793e-01 0.0000000000000000e+00  8.8999860531280284e-04 -8.0892480706916359e-01 0.0000000000000000e+00  2.7555456069525142e-04 -2.8266756220590245e-01 0.0000000000000000e+00  3.0637797551514301e-03 -3.1407754090380952e-01 0.0000000000000000e+00  -1.0413651012007308e-03 -9.8480543827297617e-01 0.0000000000000000e+00  2.1945527287816624e-03 -7.1926236177643665e-01 0.0000000000000000e+00  3.1137675823587063e-03 -8.5295616120150086e-01 0.0000000000000000e+00  7.5655458987866631e-04 -9.1716496511825540e-01 0.0000000000000000e+00  2.9643848137901607e-03 -7.9149925436234925e-01 0.0000000000000000e+00  2.4432347233545038e-03 -6.4121379912891618e-01 0.0000000000000000e+00  -7.1906949331428799e-04 -9.2877212937886033e-01 0.0000000000000000e+00  -7.6091285886842330e-04 -9.7539076597647223e-01 0.0000000000000000e+00  -1.1898063597579056e-03 -9.8076023219791220e-01 0.0000000000000000e+00  -1.5354987144511889e-03 -9.5704994211012173e-01 0.0000000000000000e+00  3.2635486880174258e-03 -8.0954030324065251e-01 0.0000000000000000e+00  -2.1178640165792073e-03 -8.7010557335219696e-01 0.0000000000000000e+00  -2.7275962378297547e-03 -8.7196484664095453e-01 0.0000000000000000e+00  3.5801856116779440e-04 -8.0950677091535839e-01 0.0000000000000000e+00  -2.1626917001580370e-03 -5.2618067352319153e-01 0.0000000000000000e+00  -6.7093109564841935e-04 -5.2045269345300860e-01 0.0000000000000000e+00  -2.3544130961759002e-03 -6.1143293711547431e-01 0.0000000000000000e+00  2.5026235972000488e-03 -3.3169496605527937e-01 0.0000000000000000e+00  3.8830654590016889e-03 -4.1979355088078291e-01 0.0000000000000000e+00  1.3793154315944189e-04 -9.9136933899832247e-01 0.0000000000000000e+00  4.8779565470310413e-03 -6.6742043910804280e-02 0.0000000000000000e+00  -3.2669914043047466e-04 -6.7532021284418611e-02 0.0000000000000000e+00  1.3277523131749458e-04 -9.9966096208325450e-01 0.0000000000000000e+00  -5.2821659417990607e-03 -5.5674050248173179e-01 0.0000000000000000e+00  1.1772196657964529e-03 -5.5934555984431578e-01 0.0000000000000000e+00  -4.7038449647650998e-03 -5.9827803087639886e-01 0.0000000000000000e+00  -3.1014565196266775e-03 -7.1919420733958705e-01 0.0000000000000000e+00  -1.6107281258512379e-03 -9.3044091593538070e-01 0.0000000000000000e+00  2.7849379877165070e-04 -8.8739680620882244e-01 0.0000000000000000e+00  -6.0652408214689757e-04 -9.8980590262680390e-01 0.0000000000000000e+00  5.3540906499798674e-04 -9.9239717509370640e-01 0.0000000000000000e+00  -5.9486169722153259e-04 -9.6460306020213626e-01 0.0000000000000000e+00  -2.0790416492525721e-03 -9.2488692448480769e-01 0.0000000000000000e+00  -1.9355241397280438e-04 -1.0000563579347197e+00 0.0000000000000000e+00  1.7777124001253086e-04 -9.9238346817230094e-01 0.0000000000000000e+00  -1.4786199053286042e-03 -9.6524769678476052e-01 0.0000000000000000e+00  -5.6444493823937236e-04 -9.8998639169029445e-01 0.0000000000000000e+00  2.2863798539362167e-03 -7.3157934139600989e-01 0.0000000000000000e+00  -1.8839251718810734e-03 -9.2467940678281391e-01 0.0000000000000000e+00  5.2005528493556663e-03 -5.3716626638822440e-01 0.0000000000000000e+00  2.9215444648200972e-03 -1.9456371087131644e-01 0.0000000000000000e+00  2.4308250314314288e-03 -1.9341822379255141e-01 0.0000000000000000e+00  -2.2661280270302358e-04 -5.4260577482150485e-01 0.0000000000000000e+00  -1.6509586060975820e-03 -6.3503382390385343e-01 0.0000000000000000e+00  2.5334162126967597e-03 -7.3329236265638342e-01 0.0000000000000000e+00  6.4428655747028607e-04 -9.9369371010605967e-01 0.0000000000000000e+00  -4.9717972509435884e-04 -9.7253721344587374e-01 0.0000000000000000e+00  4.2199803163045502e-04 -9.9534468741077187e-01 0.0000000000000000e+00  -3.0177872165361441e-04 -6.2319478036746379e-01 0.0000000000000000e+00  -8.9736506423399032e-04 -9.5153102189518013e-01 0.0000000000000000e+00  1.0752769458646227e-03 -9.4781073206852784e-01 0.0000000000000000e+00  3.6527944546325686e-03 -8.0995759748441043e-01 0.0000000000000000e+00  -3.0256590871537981e-03 -7.2425459435718542e-01 0.0000000000000000e+00  -5.2585456859605140e-04 -8.0313311817065836e-01 0.0000000000000000e+00  1.9077326624457880e-03 -9.2083273865266424e-01 0.0000000000000000e+00  4.4609383124210172e-03 -2.1173140122819301e-01 0.0000000000000000e+00  -5.2750707583343812e-03 -2.9739721816188586e-01 0.0000000000000000e+00  5.0670449864170797e-04 -9.8020508923763450e-01 0.0000000000000000e+00  1.2225043470644459e-03 -9.7714839557974065e-01 0.0000000000000000e+00  -9.7553000972849802e-04 -8.9361191961096531e-01 0.0000000000000000e+00  5.7686174911142363e-04 -9.7738845968593624e-01 0.0000000000000000e+00  -3.2852060526256111e-04 -9.9490340799553723e-01 0.0000000000000000e+00  2.9853266600793349e-03 -4.5063499300282905e-01 0.0000000000000000e+00  2.6028847301893254e-03 -8.5750285491626166e-01 0.0000000000000000e+00  3.8660618765739563e-03 -8.9205552582982972e-01 0.0000000000000000e+00  -4.4087280345724011e-04 -7.3813053711216547e-01 0.0000000000000000e+00  -5.0056473690596182e-04 -9.9337251319881936e-01 0.0000000000000000e+00  1.1226660137875766e-03 -8.7225746840483664e-01 0.0000000000000000e+00  1.4278513844101556e-03 -9.2742728597031732e-01 0.0000000000000000e+00  1.2691133822409495e-03 -8.8823621602817404e-01 0.0000000000000000e+00  1.0856044821448974e-03 -9.2969457557653201e-01 0.0000000000000000e+00  -2.6427406833883782e-03 -8.5211323757111979e-01 0.0000000000000000e+00  2.5798027512219379e-04 -9.9913436289525759e-01 0.0000000000000000e+00  -3.2050859304622037e-04 -9.9308618133722670e-01 0.0000000000000000e+00  1.4231938239486486e-03 -6.9615170727203834e-01 0.0000000000000000e+00  3.6805784844630707e-03 -4.7315343499072315e-01 0.0000000000000000e+00  2.4354505099055679e-04 -8.7672170984368414e-01 0.0000000000000000e+00  2.2519819358948201e-03 -8.0188324827987434e-01 0.0000000000000000e+00  -6.5011234549747221e-04 -9.8988608292612379e-01 0.0000000000000000e+00  1.0129322595614498e-03 -9.6981294923754058e-01 0.0000000000000000e+00  -2.4495999770123289e-03 -9.2166361893313209e-01 0.0000000000000000e+00  -7.6063125770078899e-04 -9.8270169743845492e-01 0.0000000000000000e+00  8.3911967658534259e-04 -9.7244063175477591e-01 0.0000000000000000e+00  1.7414297434146797e-03 -4.5922070738841025e-01 0.0000000000000000e+00  1.6638381992720996e-03 -7.6332696778415743e-01 0.0000000000000000e+00  4.4814726542325989e-03 -8.0128316698056767e-01 0.0000000000000000e+00  3.3702475813482402e-04 -9.9695868813317945e-01 0.0000000000000000e+00  6.4955749032979959e-04 -9.6615157581445299e-01 0.0000000000000000e+00  -9.3378568613644575e-04 -9.6446496151360461e-01 0.0000000000000000e+00  2.2879008383070443e-03 -7.1251249579770737e-01 0.0000000000000000e+00  1.0907903254465251e-03 -8.8569394093636078e-01 0.0000000000000000e+00  -3.5019084604764883e-03 -7.9199730398249890e-01 0.0000000000000000e+00  -2.0835213969749855e-03 -8.2003112228714792e-01 0.0000000000000000e+00  -6.5122188216966447e-04 -9.8135854263568512e-01 0.0000000000000000e+00  1.4215778950391889e-03 -7.6348182471649861e-01 0.0000000000000000e+00  1.2780576809376387e-03 -9.6702625522270069e-01 0.0000000000000000e+00  2.1216124662271074e-04 -9.8713689181562647e-01 0.0000000000000000e+00  7.9118387587395755e-05 -9.9368481017820132e-01 0.0000000000000000e+00  2.2782087697017506e-03 -8.6474417330409037e-01 0.0000000000000000e+00  -1.2826702339326090e-03 -5.1513306281548576e-01 0.0000000000000000e+00  -5.7018317260166314e-05 -7.6645686856683748e-01 0.0000000000000000e+00  2.2952070639647992e-03 -8.6548525641229701e-01 0.0000000000000000e+00  2.0705074256561345e-04 -3.1435810391283336e-01 0.0000000000000000e+00  -5.6795096635867126e-03 -1.8802164521047157e-01 0.0000000000000000e+00  -2.1436285346997513e-03 -8.5147037418843941e-01 0.0000000000000000e+00  1.0704340595460438e-03 -9.3673065753330143e-01 0.0000000000000000e+00  -1.4075767415690221e-04 -8.8742221316565417e-01 0.0000000000000000e+00  -6.9126611546114353e-04 -9.0893788336575843e-01 0.0000000000000000e+00  3.5220877436330789e-03 -4.0358447216051269e-01 0.0000000000000000e+00  9.4394853433210635e-05 -9.9965801573244906e-01 0.0000000000000000e+00  7.7622820823039507e-04 -6.4188646300878516e-01 0.0000000000000000e+00  -3.2010471918144656e-03 -5.3248740414264728e-01 0.0000000000000000e+00  -3.3570927315089150e-03 -5.9477018394176084e-01 0.0000000000000000e+00  -2.3090206078003328e-03 -6.1334262537821016e-01 0.0000000000000000e+00  -4.8556469311315797e-03 -6.6253644164311831e-01 0.0000000000000000e+00  1.4629049800981841e-03 -8.6777577460563349e-01 0.0000000000000000e+00  -2.3329841212538227e-03 -8.7782208451406885e-01 0.0000000000000000e+00  -5.4659011489399667e-04 -9.3308321420006968e-01 0.0000000000000000e+00  -7.1712507390636615e-04 -9.7066721712142690e-01 0.0000000000000000e+00  1.0221018299087226e-03 -2.6342532949705527e-01 0.0000000000000000e+00  1.7139102748429114e-03 -3.6019036341146499e-01 0.0000000000000000e+00  -2.2305395444826293e-03 -3.2099300760704935e-01 0.0000000000000000e+00  7.2113567083570418e-04 -9.5181644272939769e-01 0.0000000000000000e+00  -1.7759488101917395e-04 -9.6328876307704936e-01 0.0000000000000000e+00  -2.8592852688791304e-03 -7.9497392011662460e-01 0.0000000000000000e+00  3.8905312874376596e-