<?xml version="1.0"?>
<VTKFile type="UnstructuredGrid"  version="0.1"  >
<UnstructuredGrid>
<Piece  NumberOfPoints="1385" NumberOfCells="2640">
<Points>
<DataArray  type="Float64"  NumberOfComponents="3"  format="ascii">0 0 0  1 0 0  1 1 0  0 1 0  0.5 0 0  1 0.5 0  0.5 1 0  0 0.5 0  0.5 0.5 0  0 0.25 0  0.25 0 0  0.25 1 0  0 0.75 0  1 0.25 0  0.75 0 0  1 0.75 0  0.75 1 0  0.7083333333333333 0.2916666666666667 0  0.2916666666666666 0.7083333333333334 0  0.375 0.25 0  0.75 0.625 0  0.2569444444444444 0.4652777777777778 0  0.5366379310344828 0.7535919540229885 0  0.1875 0.1875 0  0.8125 0.8125 0  0.869047619047619 0.375 0  0.1450441919191919 0.6052714646464646 0  0.375 0.8690476190476191 0  0.5526960784313725 0.1825980392156862 0  0.8385416666666666 0.1614583333333334 0  0.1614583333333333 0.8385416666666667 0  0.6736111111111112 0.4652777777777778 0  0.1367521367521368 0.3477564102564102 0  0.6570970491253563 0.8648656830417855 0  0.5102479397556124 0.3386260301221938 0  0.3654513888888889 0.5737847222222222 0  0.6929750044954185 0.1362784921584263 0  0.388576102743835 0.411911725237599 0  0.6091269841269842 0.5942460317460317 0  0.875 0.6875 0  0.427278890279516 0.119889445139758 0  0.8544456845238095 0.5213913690476191 0  0.125 0 0  0 0.125 0  1 0.875 0  0.875 1 0  0.1280008648150532 0.4769292340226777 0  0.2695382451711197 0.3321750950221553 0  0.7031567235715964 0.7447810921428012 0  0.625 0 0  0.375 0 0  0.125 1 0  0.875 0 0  0 0.375 0  0 0.625 0  1 0.375 0  0.375 1 0  1 0.125 0  0 0.875 0  0.625 1 0  1 0.625 0  0.2979288363930608 0.1201429454643536 0  0.410919540229885 0.7484605911330049 0  0.5325041980395562 0.878905151526474 0  0.4831670727569156 0.6331060043826487 0  0.1735997378973042 0.7204747378973043 0  0.2534919507575758 0.5772372159090909 0  0.2633928571428572 0.8876488095238095 0  0.8199404761904761 0.2730654761904762 0  0.75830270586982 0.3919383189517417 0  0.5750282248382511 0.4237522353023667 0  0.6008360210023379 0.2794828358598495 0  0.08163442644334186 0.6821295860397322 0  0.08333333333333333 0.1875 0  0.2028380815996574 0.08844602719988583 0  0.2766521142611967 0.2325436572164097 0  0.90625 0.78125 0  0.890625 0.890625 0  0.7545696325008384 0.8973565441669461 0  0.5625 0.08086590340834317 0  0.09077380952380953 0.09077380952380952 0  0.4610923478694773 0.209034015149656 0  0.7542527598351648 0.5248380520595106 0  0.6459235536037465 0.3619913988405765 0  0.7560381768882634 0.20506142233852 0  0.07073252688172042 0.8125 0  0.0924753097241701 0.9078102849914793 0  0.9292674731182795 0.1875 0  0.9075246902758297 0.09218971500852073 0  0.8125 0.07073252688172045 0  0.2400955776842301 0.7869705776842302 0  0.9121050213379069 0.2781978201831695 0  0.7916878157143976 0.7239689078571988 0  0.9345238095238094 0.4375 0  0.4375 0.9345238095238095 0  0.3725616989755203 0.6651895248862173 0  0.06536271996350887 0.5625 0  0.9348362560379583 0.5625 0  0.456646798987055 0.8277247094351965 0  0.1875 0.9355758238725954 0  0.6169761231634859 0.6939779188977889 0  0.6226854751147515 0.7827911461419014 0  0.3305695598137626 0.7901697871282585 0  0.5865305325818898 0.5101085479043448 0  0.6622701297028378 0.2177663989757395 0  0.1354166666666667 0.2591702279202279 0  0 0.3125 0  0.2094429575680048 0.3936361846162499 0  0.836666296419157 0.607917407161686 0  0.6875 1 0  0.214261555450504 0.6492551722020035 0  0 0.4375 0  0.07731537126068377 0.40625 0  0.3427725432967068 0.4879566233699599 0  0.3550792513951871 0.3331953632609953 0  0.4462473953896857 0.2887834789342508 0  0.4747801464819794 0.417386052030127 0  0.8229836475148948 0.4443292349237342 0  0.7322605135514757 0.8199240278289671 0  0.6756431877205955 0.5468989748126787 0  0.1968419507215863 0.5194573482612496 0  0.3285590277777778 0.9345238095238095 0  0.8125 1 0  0.4198917601920009 0.5134893045331258 0  0.5232405503206691 0.2595791787880157 0  1 0.9375 0  0.1987510870015086 0.3025185951894431 0  0.5625 1 0  0.6005390654136388 0.9228110509230952 0  0.6411254848194414 0.07704872765442942 0  0.3357233162523242 0.1855113224530532 0  0.6730653396610877 0.6393887462324165 0  0.310966987234063 0.6240019765311626 0  0.7368737836204349 0.07457755202327881 0  0.6192316414418171 0.1485238406378594 0  0.5432429670607106 0.678552703844006 0  0.4754371679695679 0.7103946803120881 0  0.07501324890749672 0.3043839897335739 0  0.5358146975860403 0.5688321463205916 0  0.3115271739500156 0.3982137365971444 0  0.3625191397122174 0.0767854603650549 0  0.5024029442563831 0.1264128223758444 0  0.4375 0 0  0.4699946908887376 0.06379961173775725 0  0.9375 0.71875 0  0.9272105898044465 0.635671179608893 0  0.9375 1 0  0.6690971819568612 0.9331530898202766 0  0.1073454944778885 0.7499206387638554 0  0.8699082999280406 0.2232403652524313 0  0.5773118091863964 0.3548027349159383 0  0.1354166666666667 0.1428571428571428 0  0.3125 0 0  0.8241684193077341 0.9257452995055244 0  0.4352314948354036 0.3586940847489378 0  0.4351301473778832 0.5819726043539077 0  0.8073232928518163 0.3419398170341962 0  0.7775949246947366 0.1298519409204575 0  0.6875 0 0  0.7413513991851041 0.457933324954483 0  0.939453125 0.841796875 0  0.5630355154606987 0.8171875156478349 0  0.9345238095238095 0.3461466592368577 0  0.9375 0 0  1 0.0625 0  0.0625 1 0  0 0.9375 0  0.06552178593177167 0.4969053669623468 0  0.1424866619031703 0.4130277709291224 0  0.1275287182444726 0.5422946908002588 0  0.2637686595586339 0.06413888464529549 0  0.2524263535491086 0.1697437503243817 0  0.7367218397988525 0.6888573970660841 0  0.0625 0 0  0 0.0625 0  0.8463594539285995 0.7578283617857982 0  0.3128751192101563 0.2851997374369947 0  0.4015281788351144 0.1806421385113692 0  0.1910251795116588 0.4553332197174453 0  0.287797471442006 0.5222621440543902 0  0.3962628745986055 0.8097380085535307 0  0.3505895299554843 0.7304878890838692 0  0.5019151500495276 0.9356042615328103 0  0.9374389419410134 0.4999931039076005 0  0.3125 1 0  0.1875 1 0  1 0.5625 0  0.4375 1 0  1 0.3125 0  1 0.4375 0  0.8125 0 0  1 0.1875 0  0.5625 0 0  0.1875 0 0  0 0.1875 0  0 0.5625 0  0 0.6875 0  0 0.8125 0  1 0.6875 0  1 0.8125 0  0.8021696218581627 0.6612893947866073 0  0.06154922295426143 0.6239401126946708 0  0.9359375 0.9359375 0  0.4666158024849896 0.7691515918155014 0  0.2318201265217025 0.7064974250277525 0  0.1565954253579966 0.6635489312486841 0  0.1598132503680848 0.7787147500325552 0  0.3146529991605639 0.8510876378205265 0  0.1461873209418733 0.05982804528877814 0  0.06109554988524315 0.2446551776247686 0  0.8054950308560754 0.5564226538848541 0  0.470541749491976 0.8853316336952531 0  0.6948472567465137 0.4042308563372457 0  0.8802828472348889 0.4658893256343853 0  0.6788075634946739 0.7974194205806069 0  0.2155048659603867 0.2428201584940968 0  0.8131223143423806 0.2132171049028394 0  0.4330798005432235 0.6671274900735726 0  0.6015279126162613 0.2187368078743274 0  0.8061636571464289 0.8703766630361714 0  0.7008230445061776 0.3478568388444072 0  0.8638466246958771 0.3147095987735538 0  0.204801534004265 0.8789209409594009 0  0.2449006736431132 0.9424182882803838 0  0.7611268409371427 0.2643056884799992 0  0.7552800864046191 0.7678006649959446 0  0.5983639638906616 0.864113435029236 0  0.1956559506814437 0.577281203577426 0  0.3527670268164207 0.1320469097565204 0  0.7530364577483248 0.3262386077083089 0  0.4535919187979363 0.4690107087451527 0  0.8824869791666666 0.8336588541666666 0  0.8814453125 0.9451171875 0  0.5582987942628019 0.622421666543858 0  0.6817532446064828 0.6939001801354731 0  0.3830295138888889 0.9450968952922078 0  0.4140603937012541 0.05211333372716105 0  0.5535864501303013 0.3060591985391672 0  0.6560130086346878 0.2729726562211558 0  0.890203140221684 0.5948314305427268 0  0.7043857725999024 0.593980890020804 0  0.5105843922695152 0.8016828014338627 0  0.05365910753708378 0.7315110031682004 0  0.616904573672261 0.4621186633436136 0  0.5338511646455415 0.387875898899613 0  0.5231769258947843 0.4477682463140762 0  0.650302973237622 0.7370722302085519 0  0.3927483139621257 0.4662414504529014 0  0.8034595960585199 0.4972538342758211 0  0.7738337841682438 0.9496376207663251 0  0.7193737507158268 0.954685447650112 0  0.482525916480686 0.5528257169991676 0  0.2533501157346781 0.2809495420003238 0  0.3118487924482243 0.5702930126570319 0  0.6257598847669529 0.4104163315430518 0  0.1354166666666667 0.1955605158730158 0  0.04166666666666666 0.15625 0  0.3956448985530264 0.6174149462065157 0  0.8102897701818546 0.3938784238208349 0  0.2641154190013625 0.8344469561943118 0  0.642852220770013 0.5068794586563659 0  0.05271458179508221 0.355846947336007 0  0.7021551360070266 0.8921457280225779 0  0.5692125776683765 0.1328512638850284 0  0.5206162811937602 0.04865158770992991 0  0.6001838442201555 0.04540556991297563 0  0.2597716608242787 0.4118346398477178 0  0.4040584599473195 0.3179589136784675 0  0.1480337679295207 0.8941560631483065 0  0.1344356707112281 0.9466251177415842 0  0.7114696411829317 0.4983917389078826 0  0.7585704698442475 0.5751926345944629 0  0.2189131956390871 0.04022068508159698 0  0.2476935455192043 0.1123642267635843 0  0.185995005654517 0.1365524537205238 0  0.6223414373308711 0.643380839165121 0  0.5732602596637543 0.7190051747306219 0  0.268358222364537 0.6586246524467934 0  0.3265879848129173 0.2369791782191225 0  0.1267095595787346 0.7034787238999181 0  0.1115202922226038 0.6421997933884982 0  0.3128688392940203 0.07260997451790079 0  0.550724900485678 0.9253360991633187 0  0.7142608810459105 0.2384904702214873 0  0.7045869185243887 0.1871826897887429 0  0.890625 0.734375 0  0.953125 0.765625 0  0.2111812642821677 0.8286209446459138 0  0.9590293078204457 0.09375 0  0.953431269039847 0.1435719386408004 0  0.04097069217955424 0.90625 0  0.04656873096015299 0.8564280613591996 0  0.1078743037981226 0.8541621766048062 0  0.8921256962018773 0.1458378233951939 0  0.8521576979194619 0.1084496634207678 0  0.8655663982740958 0.05464346096571447 0  0.04005659640905543 0.09375 0  0.1001448316533417 0.04246776244228261 
[...]
<PointData  Vectors="f_8394-0-0"> 
<DataArray  type="Float64"  Name="f_8394-0-0"  NumberOfComponents="3" format="ascii">-1.4019590277494137e-02 7.1391475106889844e-03 0.0000000000000000e+00  -8.4389413027915561e-01 1.4897348150703094e-03 0.0000000000000000e+00  -9.1304368112634338e-01 2.5477632338221931e-03 0.0000000000000000e+00  -8.3757224842761868e-01 -1.3106528949874061e-05 0.0000000000000000e+00  -4.8633813798000652e-01 2.9553498967013203e-03 0.0000000000000000e+00  -9.9667048215478782e-01 -5.7671841968871818e-05 0.0000000000000000e+00  -9.9772527473340977e-01 1.7155953826370279e-04 0.0000000000000000e+00  -4.8121070324303244e-01 5.5784669688265787e-03 0.0000000000000000e+00  -8.3834449180286708e-01 -1.7141926625225401e-03 0.0000000000000000e+00  -2.5422486270150785e-01 2.7938572325897360e-03 0.0000000000000000e+00  -2.5495982559750696e-01 3.6969120613734594e-03 0.0000000000000000e+00  -9.4646892792788306e-01 -1.0080858256638070e-03 0.0000000000000000e+00  -6.7407582255899678e-01 4.8527516615762961e-04 0.0000000000000000e+00  -9.4682155907957188e-01 -1.7279013778319086e-03 0.0000000000000000e+00  -6.8422772157561251e-01 -1.0250442765468910e-03 0.0000000000000000e+00  -9.8420761637465815e-01 1.0065713012747390e-03 0.0000000000000000e+00  -9.8552358540695761e-01 6.5911979395560927e-04 0.0000000000000000e+00  -8.4631899802589050e-01 1.4188053275595164e-03 0.0000000000000000e+00  -8.4377333050378955e-01 2.8337740652114585e-03 0.0000000000000000e+00  -5.8091306177498114e-01 -2.4637134005643935e-03 0.0000000000000000e+00  -9.7932401829345150e-01 -9.3524122197766180e-04 0.0000000000000000e+00  -6.6318310512490475e-01 -1.0481821213551568e-03 0.0000000000000000e+00  -9.6344687114396055e-01 5.7642351886175169e-04 0.0000000000000000e+00  -3.5851855107480529e-01 -4.1333446847061639e-03 0.0000000000000000e+00  -9.9875463940372600e-01 2.0860981653714195e-04 0.0000000000000000e+00  -9.4979792349372361e-01 1.0055287233177168e-03 0.0000000000000000e+00  -6.7581774975922715e-01 -1.6244914256235976e-03 0.0000000000000000e+00  -9.5054838716048140e-01 4.7708353960049937e-04 0.0000000000000000e+00  -6.7737089615513191e-01 3.1655390738219991e-03 0.0000000000000000e+00  -8.3626616821352473e-01 -1.5287132206745768e-03 0.0000000000000000e+00  -8.3796028164202940e-01 -2.4285143189902159e-03 0.0000000000000000e+00  -9.1261411487210653e-01 7.2920076777271969e-04 0.0000000000000000e+00  -4.6092904569070903e-01 -1.0849774955009606e-03 0.0000000000000000e+00  -9.9907054770308568e-01 2.0140878213548152e-04 0.0000000000000000e+00  -7.4568523022002708e-01 -3.6147192340756917e-03 0.0000000000000000e+00  -8.1342431840172802e-01 1.6243218042564511e-03 0.0000000000000000e+00  -7.3105920180832806e-01 -2.5547518789358903e-03 0.0000000000000000e+00  -7.1924242444588549e-01 -1.7589638380380284e-03 0.0000000000000000e+00  -9.3137470569457403e-01 -8.5276758832453226e-04 0.0000000000000000e+00  -9.9978283212368124e-01 -5.1467757346379539e-05 0.0000000000000000e+00  -5.2680310789190044e-01 4.1063506395014882e-03 0.0000000000000000e+00  -9.8281349527242057e-01 3.3118668171149002e-04 0.0000000000000000e+00  -1.3314255809513798e-01 4.5760613621150803e-03 0.0000000000000000e+00  -1.1453252667397630e-01 -7.8128366259048662e-04 0.0000000000000000e+00  -9.5435267078670960e-01 1.8220178884877369e-03 0.0000000000000000e+00  -9.5551746487101730e-01 1.1339743020860604e-03 0.0000000000000000e+00  -5.7658868145732689e-01 2.1157439980999393e-03 0.0000000000000000e+00  -5.7023456972178765e-01 -4.7346940091723133e-03 0.0000000000000000e+00  -9.9134060343209651e-01 -4.8656658802415098e-04 0.0000000000000000e+00  -5.9149398851122248e-01 5.7389596389118328e-04 0.0000000000000000e+00  -3.7295038340498032e-01 5.7878753696107010e-03 0.0000000000000000e+00  -8.9892974360788480e-01 -2.2846399248652727e-03 0.0000000000000000e+00  -7.7278246596024769e-01 3.3155286617962965e-03 0.0000000000000000e+00  -3.7260651728254912e-01 5.4633958262017002e-03 0.0000000000000000e+00  -5.9036990499273889e-01 2.3709425471118983e-03 0.0000000000000000e+00  -9.7988243520823715e-01 -1.2014818165856367e-03 0.0000000000000000e+00  -9.7920361320986082e-01 1.8541063943277491e-04 0.0000000000000000e+00  -9.0057112061513589e-01 -2.5117187904707405e-03 0.0000000000000000e+00  -7.6837553857030227e-01 2.6825409998796901e-03 0.0000000000000000e+00  -9.9891765961059931e-01 -5.2482043863844865e-05 0.0000000000000000e+00  -9.9836854514365847e-01 2.9519576140552006e-04 0.0000000000000000e+00  -4.0066708989200289e-01 5.2374236302069888e-03 0.0000000000000000e+00  -9.1450467760695120e-01 -1.3222222718280996e-03 0.0000000000000000e+00  -9.8660553913629989e-01 -9.9079862819861919e-04 0.0000000000000000e+00  -8.9485333536410760e-01 -2.1098651794664303e-03 0.0000000000000000e+00  -7.8478255967144595e-01 2.1662726440770941e-03 0.0000000000000000e+00  -7.4503246532604128e-01 4.7412625513736373e-03 0.0000000000000000e+00  -9.1302150415538841e-01 -2.2412928404599991e-03 0.0000000000000000e+00  -8.8315255801706938e-01 -1.3440093642261841e-03 0.0000000000000000e+00  -9.1308972971909119e-01 1.5629248085723829e-03 0.0000000000000000e+00  -8.4103497003661665e-01 2.5139304756694597e-03 0.0000000000000000e+00  -7.7646455857061603e-01 8.8944640078048032e-04 0.0000000000000000e+00  -6.9179060352158428e-01 -3.5005577745736982e-03 0.0000000000000000e+00  -2.5964297923078328e-01 -5.0407239952322269e-03 0.0000000000000000e+00  -2.7857208222080038e-01 -4.0892503782473666e-03 0.0000000000000000e+00  -4.9408262585297963e-01 3.6352391702676456e-03 0.0000000000000000e+00  -9.9435973550836376e-01 3.7822616420429833e-04 0.0000000000000000e+00  -9.7795860817272828e-01 7.3801018083187030e-04 0.0000000000000000e+00  -9.9717979544899127e-01 1.6313064177286840e-04 0.0000000000000000e+00  -5.9255665744780761e-01 -2.8248842672907726e-03 0.0000000000000000e+00  -1.9058134235864105e-01 3.6757913732756858e-03 0.0000000000000000e+00  -6.1485367813315117e-01 -1.9058458606469597e-03 0.0000000000000000e+00  -9.6031270053152085e-01 7.4261263394015398e-04 0.0000000000000000e+00  -8.4152482904279391e-01 -2.6663172304302041e-03 0.0000000000000000e+00  -8.2406623116913735e-01 -2.5513577796194287e-03 0.0000000000000000e+00  -7.7707477642461875e-01 -2.7258798419282915e-04 0.0000000000000000e+00  -8.4619846130950649e-01 -1.5647197118539742e-03 0.0000000000000000e+00  -9.0216085311575467e-01 1.5351888323246188e-03 0.0000000000000000e+00  -8.3558267172776735e-01 -2.1699834537410867e-03 0.0000000000000000e+00  -7.7698490807580045e-01 3.6711557144178952e-03 0.0000000000000000e+00  -8.5235069941703578e-01 -1.2401411308532451e-03 0.0000000000000000e+00  -9.2628801571474251e-01 -1.7173259208432823e-03 0.0000000000000000e+00  -9.9889555868088309e-01 1.3488207000433849e-04 0.0000000000000000e+00  -9.8161775579590926e-01 5.4871542061377121e-04 0.0000000000000000e+00  -9.8233712317281519e-01 3.1602422293569143e-04 0.0000000000000000e+00  -8.5908381630788688e-01 -1.8704087435918171e-03 0.0000000000000000e+00  -5.8133527144693342e-01 -3.0645182177864161e-03 0.0000000000000000e+00  -9.9769141563020580e-01 7.3528259261351758e-06 0.0000000000000000e+00  -9.6149325774985650e-01 3.4458250962909887e-04 0.0000000000000000e+00  -8.9860546476228631e-01 -2.2061874338380749e-03 0.0000000000000000e+00  -9.6549142947065048e-01 -1.0450875493340783e-03 0.0000000000000000e+00  -9.8440275843881597e-01 -5.7555763873984311e-04 0.0000000000000000e+00  -9.0421364361627043e-01 1.9262352473139455e-03 0.0000000000000000e+00  -8.9368166861570009e-01 1.1770406434388203e-03 0.0000000000000000e+00  -7.6649970437848869e-01 -3.2498945894982034e-03 0.0000000000000000e+00  -3.8698680412544928e-01 2.7538250789463647e-03 0.0000000000000000e+00  -3.1021648493726062e-01 5.7987535498681408e-03 0.0000000000000000e+00  -5.7118343905020175e-01 4.3278014518820240e-03 0.0000000000000000e+00  -9.9102358927524781e-01 -2.0346328498777044e-04 0.0000000000000000e+00  -9.9371837818253372e-01 6.0452404470290322e-04 0.0000000000000000e+00  -7.5495532259769871e-01 -3.2121358200687400e-04 0.0000000000000000e+00  -4.1606345721227495e-01 -2.9021250703414880e-03 0.0000000000000000e+00  -4.5972771052582606e-01 6.0068620217762492e-05 0.0000000000000000e+00  -7.3258175479759202e-01 -1.4672484426898613e-03 0.0000000000000000e+00  -6.3627065046280151e-01 3.4641704859650069e-03 0.0000000000000000e+00  -6.7658119204613887e-01 9.2604159787701423e-04 0.0000000000000000e+00  -7.8492811002524654e-01 1.7013431682644242e-03 0.0000000000000000e+00  -9.5098877929545966e-01 -9.1134528942937720e-04 0.0000000000000000e+00  -1.0000003372956421e+00 -2.4596005449406544e-05 0.0000000000000000e+00  -9.4115153067628099e-01 1.2990328667931705e-03 0.0000000000000000e+00  -6.5370545683665404e-01 4.7356107731971464e-03 0.0000000000000000e+00  -9.5204508549454414e-01 -2.0489649477655192e-03 0.0000000000000000e+00  -9.7356450202003686e-01 9.5275029496688646e-04 0.0000000000000000e+00  -8.0987138037083206e-01 3.0407416955944289e-03 0.0000000000000000e+00  -7.0027109306853652e-01 -1.8371092915502041e-03 0.0000000000000000e+00  -9.3383180649434661e-01 2.3136022202080442e-03 0.0000000000000000e+00  -4.8787702106879094e-01 3.4318195268273968e-03 0.0000000000000000e+00  -9.9991644173448102e-01 -4.4011523659959195e-05 0.0000000000000000e+00  -9.9940882197289227e-01 8.7824991829243970e-05 0.0000000000000000e+00  -6.6266485554820287e-01 1.8594352605514342e-03 0.0000000000000000e+00  -5.0498097083339610e-01 -6.3156321407706328e-03 0.0000000000000000e+00  -9.6783024665979855e-01 -1.1874151372984060e-03 0.0000000000000000e+00  -7.9858976263480086e-01 -1.2194599683541529e-03 0.0000000000000000e+00  -7.3081853290862442e-01 3.7980186370274449e-03 0.0000000000000000e+00  -7.0016290182338059e-01 9.8296822940474593e-04 0.0000000000000000e+00  -9.4313505109043771e-01 1.2089139770443680e-03 0.0000000000000000e+00  -9.3131498244379807e-01 1.8463079928563442e-03 0.0000000000000000e+00  -3.6630753282907219e-01 2.8666328717920631e-03 0.0000000000000000e+00  -8.9769613733179177e-01 6.5744519788485389e-04 0.0000000000000000e+00  -6.5850892990019327e-01 3.2727330124868725e-03 0.0000000000000000e+00  -4.1870014530720800e-01 -3.6403432313260597e-03 0.0000000000000000e+00  -5.9506320161901427e-01 3.2335769862544455e-03 0.0000000000000000e+00  -4.3215727381632180e-01 4.3941652056150859e-03 0.0000000000000000e+00  -5.0683343455494700e-01 -4.3231779311468932e-03 0.0000000000000000e+00  -9.9682595805228724e-01 2.2091929993395265e-04 0.0000000000000000e+00  -9.9971178004839989e-01 -5.3490867362393502e-05 0.0000000000000000e+00  -9.3645431434503279e-01 -1.2214661199474514e-04 0.0000000000000000e+00  -9.9922332005419867e-01 -1.9941825561950455e-04 0.0000000000000000e+00  -7.5230850212573042e-01 -2.6469973003656888e-03 0.0000000000000000e+00  -8.8698810309197029e-01 -1.4490640867054760e-03 0.0000000000000000e+00  -8.0988274779603042e-01 1.0492419157904012e-03 0.0000000000000000e+00  -2.7142319226101019e-01 -2.1976310253617182e-04 0.0000000000000000e+00  -3.1430751770206727e-01 2.8346996637300401e-03 0.0000000000000000e+00  -9.8220698939758222e-01 -8.5481841051948670e-04 0.0000000000000000e+00  -7.1960995922713011e-01 1.6461177171571972e-03 0.0000000000000000e+00  -8.5429144739959606e-01 2.7538979872119285e-03 0.0000000000000000e+00  -9.1663476278061617e-01 9.3415953086928294e-04 0.0000000000000000e+00  -7.9340080259323709e-01 3.1110164209176006e-03 0.0000000000000000e+00  -6.4005596468209958e-01 2.9476055934579224e-03 0.0000000000000000e+00  -9.2820560460820867e-01 -1.2843049659177486e-03 0.0000000000000000e+00  -9.7569867819249501e-01 -7.5184741964562374e-04 0.0000000000000000e+00  -9.8050757500412833e-01 -1.1958855085797415e-03 0.0000000000000000e+00  -9.5539926397985364e-01 -1.7663736602741009e-03 0.0000000000000000e+00  -8.1029847539004352e-01 3.2718105983742252e-03 0.0000000000000000e+00  -8.6972548760257240e-01 -2.1459172399646287e-03 0.0000000000000000e+00  -8.7113574435890251e-01 -2.8459796997022391e-03 0.0000000000000000e+00  -8.0009828259889659e-01 -3.3255262023013099e-04 0.0000000000000000e+00  -5.2715523083404370e-01 -1.4246673890950384e-03 0.0000000000000000e+00  -5.3212278952372383e-01 -1.0457621708553633e-03 0.0000000000000000e+00  -6.2625591848192685e-01 -3.1068922322233165e-03 0.0000000000000000e+00  -3.1691275276556263e-01 1.9790806480033812e-03 0.0000000000000000e+00  -4.1941663707886068e-01 3.4664788761375742e-03 0.0000000000000000e+00  -9.9118148094002834e-01 2.3647864514497741e-04 0.0000000000000000e+00  -7.1035949405114512e-02 5.2899125407192965e-03 0.0000000000000000e+00  -5.3850853431115460e-02 -1.5436198791372591e-03 0.0000000000000000e+00  -9.9958101407494870e-01 2.0129664115509094e-04 0.0000000000000000e+00  -5.5751276252051007e-01 -4.7917011919982877e-03 0.0000000000000000e+00  -5.5853757920769298e-01 1.1821135535457494e-03 0.0000000000000000e+00  -5.9492914155757770e-01 -4.8637907060283814e-03 0.0000000000000000e+00  -7.2409365890931365e-01 -3.6041575017119187e-03 0.0000000000000000e+00  -9.3183344209246310e-01 -1.1007491994050600e-03 0.0000000000000000e+00  -8.8687715677162460e-01 -1.4027305499741960e-04 0.0000000000000000e+00  -9.9119950322424677e-01 -5.2245889607981100e-04 0.0000000000000000e+00  -9.9201568894563141e-01 5.2171136559620024e-04 0.0000000000000000e+00  -9.6525716692252095e-01 -6.0621083761680516e-04 0.0000000000000000e+00  -9.2411708101283907e-01 -2.1812438967572234e-03 0.0000000000000000e+00  -9.9966770965856111e-01 -3.1117011449310894e-05 0.0000000000000000e+00  -9.8997184120431991e-01 2.2004770307228444e-04 0.0000000000000000e+00  -9.6522232585743539e-01 -1.4319037684039637e-03 0.0000000000000000e+00  -9.9094917251774395e-01 -5.9179940367630468e-04 0.0000000000000000e+00  -7.2994122880541235e-01 2.4164240339231684e-03 0.0000000000000000e+00  -9.2423669401726094e-01 -1.8081047742704581e-03 0.0000000000000000e+00  -5.4018973486859789e-01 5.0711826348056599e-03 0.0000000000000000e+00  -1.9459940961471217e-01 2.5166959247189861e-03 0.0000000000000000e+00  -1.9404510248240900e-01 2.5483944228165134e-03 0.0000000000000000e+00  -5.2327437775699348e-01 -3.2670935552692529e-04 0.0000000000000000e+00  -6.2856898869742628e-01 -1.8240589125934625e-03 0.0000000000000000e+00  -7.2660424727483797e-01 2.6034312031377391e-03 0.0000000000000000e+00  -9.9312013054233284e-01 6.6241985338605369e-04 0.0000000000000000e+00  -9.6808997644606565e-01 -6.0362007836706200e-04 0.0000000000000000e+00  -9.9454883337794642e-01 4.7663152881771698e-04 0.0000000000000000e+00  -6.3984797469485466e-01 -8.8452732777945936e-04 0.0000000000000000e+00  -9.5227541554939632e-01 -5.0583679613319665e-04 0.0000000000000000e+00  -9.4762405508043113e-01 1.1104938084190996e-03 0.0000000000000000e+00  -8.1097652311731649e-01 2.9085170729415966e-03 0.0000000000000000e+00  -7.3354943338633838e-01 -3.9494830034270956e-03 0.0000000000000000e+00  -8.1239451693085829e-01 -5.1371625215201888e-04 0.0000000000000000e+00  -9.2176045890544178e-01 1.8224922165122059e-03 0.0000000000000000e+00  -2.1189472810535448e-01 5.4295667346607457e-03 0.0000000000000000e+00  -2.9324064382091314e-01 -4.2492582258993328e-03 0.0000000000000000e+00  -9.8014421409310559e-01 5.4545281433232562e-04 0.0000000000000000e+00  -9.7883048317315513e-01 1.1754394252383449e-03 0.0000000000000000e+00  -8.8653953925993734e-01 -1.4005099989217173e-03 0.0000000000000000e+00  -9.7692000512616373e-01 5.1282475601920063e-04 0.0000000000000000e+00  -9.9477601516750802e-01 -4.7473119284255350e-04 0.0000000000000000e+00  -4.5042822233716268e-01 3.3887852351199045e-03 0.0000000000000000e+00  -8.5949455304197198e-01 2.1552726746472128e-03 0.0000000000000000e+00  -8.9599279939060339e-01 3.4410760892832903e-03 0.0000000000000000e+00  -7.2551120215525589e-01 -4.0722945636874341e-04 0.0000000000000000e+00  -9.9356757067748325e-01 -3.9516606519290898e-04 0.0000000000000000e+00  -8.7136331740439532e-01 1.4342036907781797e-03 0.0000000000000000e+00  -9.2671184186736366e-01 1.0372628588088406e-03 0.0000000000000000e+00  -8.8125940359402832e-01 1.0558067759373346e-03 0.0000000000000000e+00  -9.3085533280131849e-01 1.3524401461804392e-03 0.0000000000000000e+00  -8.5053469654762592e-01 -2.6200955813434623e-03 0.0000000000000000e+00  -9.9915220922729875e-01 1.4609856934988397e-04 0.0000000000000000e+00  -9.9469432000682079e-01 -2.5916142572357526e-04 0.0000000000000000e+00  -7.0452861353533980e-01 1.6057099069849423e-03 0.0000000000000000e+00  -4.6921692624798389e-01 4.8344300918547467e-03 0.0000000000000000e+00  -8.7701890490500367e-01 -6.8650932368780060e-04 0.0000000000000000e+00  -8.0175699493130770e-01 2.6409253282868306e-03 0.0000000000000000e+00  -9.8787675060643543e-01 -7.0428847480386025e-04 0.0000000000000000e+00  -9.6694237262961580e-01 1.0266780066917058e-03 0.0000000000000000e+00  -9.2233556101084324e-01 -2.5062735556802274e-03 0.0000000000000000e+00  -9.7886611352062514e-01 -6.7287152174308473e-04 0.0000000000000000e+00  -9.7322868707329135e-01 9.8339203761263483e-04 0.0000000000000000e+00  -4.6028118363688586e-01 2.6547726871190558e-03 0.0000000000000000e+00  -7.6349145920777495e-01 1.6104522913824304e-03 0.0000000000000000e+00  -8.0622212830714890e-01 3.4385738021708856e-03 0.0000000000000000e+00  -9.9677334203376777e-01 4.1224813445839281e-04 0.0000000000000000e+00  -9.6610252521975526e-01 8.9116926773559479e-04 0.0000000000000000e+00  -9.6663824389846975e-01 -1.1142968408333065e-03 0.0000000000000000e+00  -7.1177249660966380e-01 1.7142698820094837e-03 0.0000000000000000e+00  -8.8553108742200559e-01 1.2379151585091286e-03 0.0000000000000000e+00  -7.9179141731746616e-01 -3.6618996828250427e-03 0.0000000000000000e+00  -8.2105210935553496e-01 -2.6386511886915126e-03 0.0000000000000000e+00  -9.8175164963784034e-01 -6.6637607040120894e-04 0.0000000000000000e+00  -7.5141850024341861e-01 1.5112562633748557e-03 0.0000000000000000e+00  -9.6243708915904114e-01 1.4436782739981890e-03 0.0000000000000000e+00  -9.8935439955769211e-01 1.7238097300942279e-04 0.0000000000000000e+00  -9.9552241000023489e-01 1.3239709623341644e-04 0.0000000000000000e+00  -8.6023943300621086e-01 1.9985305851052682e-03 0.0000000000000000e+00  -5.0553130349795239e-01 -7.5206455409609907e-04 0.0000000000000000e+00  -7.6583166283862469e-01 -5.6952661652887038e-04 0.0000000000000000e+00  -8.6250582854790858e-01 2.9059878461215050e-03 0.0000000000000000e+00  -3.1608584847875115e-01 -1.0531866771579801e-03 0.0000000000000000e+00  -1.9345021084739422e-01 -4.2491923166949469e-03 0.0000000000000000e+00  -8.4375188865937467e-01 -2.1483113648499974e-03 0.0000000000000000e+00  -9.3665553452359906e-01 8.6630080603673776e-04 0.0000000000000000e+00  -8.8715421370770842e-01 -6.6901262093374547e-04 0.0000000000000000e+00  -9.0885060655802297e-01 -8.6908750115011202e-04 0.0000000000000000e+00  -4.0545487217329812e-01 3.8991256102395462e-03 0.0000000000000000e+00  -9.9975300918369570e-01 1.6460012076940922e-04 0.0000000000000000e+00  -6.4849042622938791e-01 1.6153671815393733e-03 0.0000000000000000e+00  -5.3310183983020276e-01 -3.1350403591724058e-03 0.0000000000000000e+00  -6.0308602696357128e-01 -2.6378741593692662e-03 0.0000000000000000e+00  -6.1535134560536897e-01 -2.3622031672105859e-03 0.0000000000000000e+00  -6.5504358399760798e-01 -4.3527068281817849e-03 0.0000000000000000e+00  -8.6800336817976009e-01 1.4085107467822766e-03 0.0000000000000000e+00  -8.8330510807150564e-01 -2.3137525600670228e-03 0.0000000000000000e+00  -9.3240112797392605e-01 -8.4050490031875591e-04 0.0000000000000000e+00  -9.7013107642632823e-01 -6.5326883240325595e-04 0.0000000000000000e+00  -2.5520580490917893e-01 1.5461184262560435e-03 0.0000000000000000e+00  -3.4936404284443950e-01 1.8898571888539108e-03 0.0000000000000000e+00  -3.1262026662015413e-01 -1.7204117616040349e-03 0.0000000000000000e+00  -9.5696003399838225e-01 8.1757840110380231e-04 0.0000000000000000e+00  -9.5918290828892228e-01 -2.2659575289273731e-04 0.0000000000000000e+00  -7.9680696749414437e-01 -3.0812990741080626e-03 0.0000000000000000e+00  -5.4113069