<?xml version="1.0"?>
<VTKFile type="UnstructuredGrid"  version="0.1"  >
<UnstructuredGrid>
<Piece  NumberOfPoints="1385" NumberOfCells="2640">
<Points>
<DataArray  type="Float64"  NumberOfComponents="3"  format="ascii">0 0 0  1 0 0  1 1 0  0 1 0  0.5 0 0  1 0.5 0  0.5 1 0  0 0.5 0  0.5 0.5 0  0 0.25 0  0.25 0 0  0.25 1 0  0 0.75 0  1 0.25 0  0.75 0 0  1 0.75 0  0.75 1 0  0.7083333333333333 0.2916666666666667 0  0.2916666666666666 0.7083333333333334 0  0.375 0.25 0  0.75 0.625 0  0.2569444444444444 0.4652777777777778 0  0.5366379310344828 0.7535919540229885 0  0.1875 0.1875 0  0.8125 0.8125 0  0.869047619047619 0.375 0  0.1450441919191919 0.6052714646464646 0  0.375 0.8690476190476191 0  0.5526960784313725 0.1825980392156862 0  0.8385416666666666 0.1614583333333334 0  0.1614583333333333 0.8385416666666667 0  0.6736111111111112 0.4652777777777778 0  0.1367521367521368 0.3477564102564102 0  0.6570970491253563 0.8648656830417855 0  0.5102479397556124 0.3386260301221938 0  0.3654513888888889 0.5737847222222222 0  0.6929750044954185 0.1362784921584263 0  0.388576102743835 0.411911725237599 0  0.6091269841269842 0.5942460317460317 0  0.875 0.6875 0  0.427278890279516 0.119889445139758 0  0.8544456845238095 0.5213913690476191 0  0.125 0 0  0 0.125 0  1 0.875 0  0.875 1 0  0.1280008648150532 0.4769292340226777 0  0.2695382451711197 0.3321750950221553 0  0.7031567235715964 0.7447810921428012 0  0.625 0 0  0.375 0 0  0.125 1 0  0.875 0 0  0 0.375 0  0 0.625 0  1 0.375 0  0.375 1 0  1 0.125 0  0 0.875 0  0.625 1 0  1 0.625 0  0.2979288363930608 0.1201429454643536 0  0.410919540229885 0.7484605911330049 0  0.5325041980395562 0.878905151526474 0  0.4831670727569156 0.6331060043826487 0  0.1735997378973042 0.7204747378973043 0  0.2534919507575758 0.5772372159090909 0  0.2633928571428572 0.8876488095238095 0  0.8199404761904761 0.2730654761904762 0  0.75830270586982 0.3919383189517417 0  0.5750282248382511 0.4237522353023667 0  0.6008360210023379 0.2794828358598495 0  0.08163442644334186 0.6821295860397322 0  0.08333333333333333 0.1875 0  0.2028380815996574 0.08844602719988583 0  0.2766521142611967 0.2325436572164097 0  0.90625 0.78125 0  0.890625 0.890625 0  0.7545696325008384 0.8973565441669461 0  0.5625 0.08086590340834317 0  0.09077380952380953 0.09077380952380952 0  0.4610923478694773 0.209034015149656 0  0.7542527598351648 0.5248380520595106 0  0.6459235536037465 0.3619913988405765 0  0.7560381768882634 0.20506142233852 0  0.07073252688172042 0.8125 0  0.0924753097241701 0.9078102849914793 0  0.9292674731182795 0.1875 0  0.9075246902758297 0.09218971500852073 0  0.8125 0.07073252688172045 0  0.2400955776842301 0.7869705776842302 0  0.9121050213379069 0.2781978201831695 0  0.7916878157143976 0.7239689078571988 0  0.9345238095238094 0.4375 0  0.4375 0.9345238095238095 0  0.3725616989755203 0.6651895248862173 0  0.06536271996350887 0.5625 0  0.9348362560379583 0.5625 0  0.456646798987055 0.8277247094351965 0  0.1875 0.9355758238725954 0  0.6169761231634859 0.6939779188977889 0  0.6226854751147515 0.7827911461419014 0  0.3305695598137626 0.7901697871282585 0  0.5865305325818898 0.5101085479043448 0  0.6622701297028378 0.2177663989757395 0  0.1354166666666667 0.2591702279202279 0  0 0.3125 0  0.2094429575680048 0.3936361846162499 0  0.836666296419157 0.607917407161686 0  0.6875 1 0  0.214261555450504 0.6492551722020035 0  0 0.4375 0  0.07731537126068377 0.40625 0  0.3427725432967068 0.4879566233699599 0  0.3550792513951871 0.3331953632609953 0  0.4462473953896857 0.2887834789342508 0  0.4747801464819794 0.417386052030127 0  0.8229836475148948 0.4443292349237342 0  0.7322605135514757 0.8199240278289671 0  0.6756431877205955 0.5468989748126787 0  0.1968419507215863 0.5194573482612496 0  0.3285590277777778 0.9345238095238095 0  0.8125 1 0  0.4198917601920009 0.5134893045331258 0  0.5232405503206691 0.2595791787880157 0  1 0.9375 0  0.1987510870015086 0.3025185951894431 0  0.5625 1 0  0.6005390654136388 0.9228110509230952 0  0.6411254848194414 0.07704872765442942 0  0.3357233162523242 0.1855113224530532 0  0.6730653396610877 0.6393887462324165 0  0.310966987234063 0.6240019765311626 0  0.7368737836204349 0.07457755202327881 0  0.6192316414418171 0.1485238406378594 0  0.5432429670607106 0.678552703844006 0  0.4754371679695679 0.7103946803120881 0  0.07501324890749672 0.3043839897335739 0  0.5358146975860403 0.5688321463205916 0  0.3115271739500156 0.3982137365971444 0  0.3625191397122174 0.0767854603650549 0  0.5024029442563831 0.1264128223758444 0  0.4375 0 0  0.4699946908887376 0.06379961173775725 0  0.9375 0.71875 0  0.9272105898044465 0.635671179608893 0  0.9375 1 0  0.6690971819568612 0.9331530898202766 0  0.1073454944778885 0.7499206387638554 0  0.8699082999280406 0.2232403652524313 0  0.5773118091863964 0.3548027349159383 0  0.1354166666666667 0.1428571428571428 0  0.3125 0 0  0.8241684193077341 0.9257452995055244 0  0.4352314948354036 0.3586940847489378 0  0.4351301473778832 0.5819726043539077 0  0.8073232928518163 0.3419398170341962 0  0.7775949246947366 0.1298519409204575 0  0.6875 0 0  0.7413513991851041 0.457933324954483 0  0.939453125 0.841796875 0  0.5630355154606987 0.8171875156478349 0  0.9345238095238095 0.3461466592368577 0  0.9375 0 0  1 0.0625 0  0.0625 1 0  0 0.9375 0  0.06552178593177167 0.4969053669623468 0  0.1424866619031703 0.4130277709291224 0  0.1275287182444726 0.5422946908002588 0  0.2637686595586339 0.06413888464529549 0  0.2524263535491086 0.1697437503243817 0  0.7367218397988525 0.6888573970660841 0  0.0625 0 0  0 0.0625 0  0.8463594539285995 0.7578283617857982 0  0.3128751192101563 0.2851997374369947 0  0.4015281788351144 0.1806421385113692 0  0.1910251795116588 0.4553332197174453 0  0.287797471442006 0.5222621440543902 0  0.3962628745986055 0.8097380085535307 0  0.3505895299554843 0.7304878890838692 0  0.5019151500495276 0.9356042615328103 0  0.9374389419410134 0.4999931039076005 0  0.3125 1 0  0.1875 1 0  1 0.5625 0  0.4375 1 0  1 0.3125 0  1 0.4375 0  0.8125 0 0  1 0.1875 0  0.5625 0 0  0.1875 0 0  0 0.1875 0  0 0.5625 0  0 0.6875 0  0 0.8125 0  1 0.6875 0  1 0.8125 0  0.8021696218581627 0.6612893947866073 0  0.06154922295426143 0.6239401126946708 0  0.9359375 0.9359375 0  0.4666158024849896 0.7691515918155014 0  0.2318201265217025 0.7064974250277525 0  0.1565954253579966 0.6635489312486841 0  0.1598132503680848 0.7787147500325552 0  0.3146529991605639 0.8510876378205265 0  0.1461873209418733 0.05982804528877814 0  0.06109554988524315 0.2446551776247686 0  0.8054950308560754 0.5564226538848541 0  0.470541749491976 0.8853316336952531 0  0.6948472567465137 0.4042308563372457 0  0.8802828472348889 0.4658893256343853 0  0.6788075634946739 0.7974194205806069 0  0.2155048659603867 0.2428201584940968 0  0.8131223143423806 0.2132171049028394 0  0.4330798005432235 0.6671274900735726 0  0.6015279126162613 0.2187368078743274 0  0.8061636571464289 0.8703766630361714 0  0.7008230445061776 0.3478568388444072 0  0.8638466246958771 0.3147095987735538 0  0.204801534004265 0.8789209409594009 0  0.2449006736431132 0.9424182882803838 0  0.7611268409371427 0.2643056884799992 0  0.7552800864046191 0.7678006649959446 0  0.5983639638906616 0.864113435029236 0  0.1956559506814437 0.577281203577426 0  0.3527670268164207 0.1320469097565204 0  0.7530364577483248 0.3262386077083089 0  0.4535919187979363 0.4690107087451527 0  0.8824869791666666 0.8336588541666666 0  0.8814453125 0.9451171875 0  0.5582987942628019 0.622421666543858 0  0.6817532446064828 0.6939001801354731 0  0.3830295138888889 0.9450968952922078 0  0.4140603937012541 0.05211333372716105 0  0.5535864501303013 0.3060591985391672 0  0.6560130086346878 0.2729726562211558 0  0.890203140221684 0.5948314305427268 0  0.7043857725999024 0.593980890020804 0  0.5105843922695152 0.8016828014338627 0  0.05365910753708378 0.7315110031682004 0  0.616904573672261 0.4621186633436136 0  0.5338511646455415 0.387875898899613 0  0.5231769258947843 0.4477682463140762 0  0.650302973237622 0.7370722302085519 0  0.3927483139621257 0.4662414504529014 0  0.8034595960585199 0.4972538342758211 0  0.7738337841682438 0.9496376207663251 0  0.7193737507158268 0.954685447650112 0  0.482525916480686 0.5528257169991676 0  0.2533501157346781 0.2809495420003238 0  0.3118487924482243 0.5702930126570319 0  0.6257598847669529 0.4104163315430518 0  0.1354166666666667 0.1955605158730158 0  0.04166666666666666 0.15625 0  0.3956448985530264 0.6174149462065157 0  0.8102897701818546 0.3938784238208349 0  0.2641154190013625 0.8344469561943118 0  0.642852220770013 0.5068794586563659 0  0.05271458179508221 0.355846947336007 0  0.7021551360070266 0.8921457280225779 0  0.5692125776683765 0.1328512638850284 0  0.5206162811937602 0.04865158770992991 0  0.6001838442201555 0.04540556991297563 0  0.2597716608242787 0.4118346398477178 0  0.4040584599473195 0.3179589136784675 0  0.1480337679295207 0.8941560631483065 0  0.1344356707112281 0.9466251177415842 0  0.7114696411829317 0.4983917389078826 0  0.7585704698442475 0.5751926345944629 0  0.2189131956390871 0.04022068508159698 0  0.2476935455192043 0.1123642267635843 0  0.185995005654517 0.1365524537205238 0  0.6223414373308711 0.643380839165121 0  0.5732602596637543 0.7190051747306219 0  0.268358222364537 0.6586246524467934 0  0.3265879848129173 0.2369791782191225 0  0.1267095595787346 0.7034787238999181 0  0.1115202922226038 0.6421997933884982 0  0.3128688392940203 0.07260997451790079 0  0.550724900485678 0.9253360991633187 0  0.7142608810459105 0.2384904702214873 0  0.7045869185243887 0.1871826897887429 0  0.890625 0.734375 0  0.953125 0.765625 0  0.2111812642821677 0.8286209446459138 0  0.9590293078204457 0.09375 0  0.953431269039847 0.1435719386408004 0  0.04097069217955424 0.90625 0  0.04656873096015299 0.8564280613591996 0  0.1078743037981226 0.8541621766048062 0  0.8921256962018773 0.1458378233951939 0  0.8521576979194619 0.1084496634207678 0  0.8655663982740958 0.05464346096571447 0  0.04005659640905543 0.09375 0  0.1001448316533417 0.04246776244228261 
[...]
<PointData  Vectors="f_8394-0-0"> 
<DataArray  type="Float64"  Name="f_8394-0-0"  NumberOfComponents="3" format="ascii">-1.4013485021947800e-02 7.1394316465292589e-03 0.0000000000000000e+00  -8.4378839672026096e-01 1.4907561421857451e-03 0.0000000000000000e+00  -9.1285310573497525e-01 2.5525498794978269e-03 0.0000000000000000e+00  -8.3779236117578604e-01 -1.3304466258310180e-05 0.0000000000000000e+00  -4.8630531849748326e-01 2.9562543087650051e-03 0.0000000000000000e+00  -9.9656351412017929e-01 -5.7273549847774996e-05 0.0000000000000000e+00  -9.9778882052595397e-01 1.7264334499142716e-04 0.0000000000000000e+00  -4.8134399441846226e-01 5.5823030902319160e-03 0.0000000000000000e+00  -8.3839901702901809e-01 -1.7146250822690501e-03 0.0000000000000000e+00  -2.5429556946668269e-01 2.7915999223418198e-03 0.0000000000000000e+00  -2.5494737312488391e-01 3.6958142396772580e-03 0.0000000000000000e+00  -9.4662028147069255e-01 -1.0077509473551682e-03 0.0000000000000000e+00  -6.7425925470307213e-01 4.8636685725432505e-04 0.0000000000000000e+00  -9.4672266427898710e-01 -1.7278515806185557e-03 0.0000000000000000e+00  -6.8416528367780971e-01 -1.0241166952666392e-03 0.0000000000000000e+00  -9.8406790149405099e-01 1.0048228895074285e-03 0.0000000000000000e+00  -9.8546819749818404e-01 6.5779160551571181e-04 0.0000000000000000e+00  -8.4630680315377749e-01 1.4195795684890100e-03 0.0000000000000000e+00  -8.4389930307197547e-01 2.8350570824968169e-03 0.0000000000000000e+00  -5.8094759441022714e-01 -2.4646194113202569e-03 0.0000000000000000e+00  -9.7931019755834425e-01 -9.3533556436087295e-04 0.0000000000000000e+00  -6.6327925367573171e-01 -1.0483812126165781e-03 0.0000000000000000e+00  -9.6350667419766278e-01 5.7720072332473338e-04 0.0000000000000000e+00  -3.5855303838947455e-01 -4.1347361489840195e-03 0.0000000000000000e+00  -9.9869836981237314e-01 2.0921695932163420e-04 0.0000000000000000e+00  -9.4974641374469360e-01 1.0055811877175969e-03 0.0000000000000000e+00  -6.7595318440713081e-01 -1.6246121139972258e-03 0.0000000000000000e+00  -9.5066261376113093e-01 4.7739154021555347e-04 0.0000000000000000e+00  -6.7737293031218415e-01 3.1671807213716208e-03 0.0000000000000000e+00  -8.3620669131103853e-01 -1.5289464343584414e-03 0.0000000000000000e+00  -8.3812641049172898e-01 -2.4290510243852592e-03 0.0000000000000000e+00  -9.1262459591237377e-01 7.2979976422105075e-04 0.0000000000000000e+00  -4.6101067238351046e-01 -1.0857253685442325e-03 0.0000000000000000e+00  -9.9907924739435505e-01 2.0102251426634687e-04 0.0000000000000000e+00  -7.4571573367133537e-01 -3.6158594506784381e-03 0.0000000000000000e+00  -8.1352103119502706e-01 1.6253918842813186e-03 0.0000000000000000e+00  -7.3102512047671719e-01 -2.5553180200323933e-03 0.0000000000000000e+00  -7.1930850520081813e-01 -1.7595427653192344e-03 0.0000000000000000e+00  -9.3140791832596070e-01 -8.5293139772568694e-04 0.0000000000000000e+00  -9.9971450399921635e-01 -5.1836106978730978e-05 0.0000000000000000e+00  -5.2680771727058784e-01 4.1074762063846304e-03 0.0000000000000000e+00  -9.8276582467377827e-01 3.3132109049096442e-04 0.0000000000000000e+00  -1.3313270552038675e-01 4.5713190880545262e-03 0.0000000000000000e+00  -1.1455737761892597e-01 -7.8608191959460283e-04 0.0000000000000000e+00  -9.5418447114506000e-01 1.8194656285296928e-03 0.0000000000000000e+00  -9.5539420291730426e-01 1.1311280785681888e-03 0.0000000000000000e+00  -5.7670647930073182e-01 2.1159160388190823e-03 0.0000000000000000e+00  -5.7030244370698358e-01 -4.7365383738215416e-03 0.0000000000000000e+00  -9.9133811062261945e-01 -4.8638963742653196e-04 0.0000000000000000e+00  -5.9144997061095561e-01 5.7284457484196014e-04 0.0000000000000000e+00  -3.7292862887216194e-01 5.7895356881480509e-03 0.0000000000000000e+00  -8.9911832728500529e-01 -2.2841304383618422e-03 0.0000000000000000e+00  -7.7269634085050165e-01 3.3172498835316588e-03 0.0000000000000000e+00  -3.7270564163898462e-01 5.4646585100014688e-03 0.0000000000000000e+00  -5.9053412556495799e-01 2.3690264394361504e-03 0.0000000000000000e+00  -9.7978283970233049e-01 -1.2018532167506479e-03 0.0000000000000000e+00  -9.7931205735720306e-01 1.8699004636405520e-04 0.0000000000000000e+00  -9.0046748212996519e-01 -2.5115632274470001e-03 0.0000000000000000e+00  -7.6857870478309498e-01 2.6849212591043281e-03 0.0000000000000000e+00  -9.9892566072288624e-01 -5.4485637694091100e-05 0.0000000000000000e+00  -9.9825040925647679e-01 2.9476808680234390e-04 0.0000000000000000e+00  -4.0067726015119726e-01 5.2391073063655230e-03 0.0000000000000000e+00  -9.1460177740514070e-01 -1.3230397497548951e-03 0.0000000000000000e+00  -9.8666304275664940e-01 -9.9163888394615540e-04 0.0000000000000000e+00  -8.9492328572824031e-01 -2.1106444129708191e-03 0.0000000000000000e+00  -7.8493721449842646e-01 2.1672572067501505e-03 0.0000000000000000e+00  -7.4514959744336051e-01 4.7432675989834694e-03 0.0000000000000000e+00  -9.1316692279408151e-01 -2.2410979097979983e-03 0.0000000000000000e+00  -8.8310814543201199e-01 -1.3444702637608330e-03 0.0000000000000000e+00  -9.1307182872202175e-01 1.5635173370708577e-03 0.0000000000000000e+00  -8.4106536892589079e-01 2.5152219269310855e-03 0.0000000000000000e+00  -7.7647429963179226e-01 8.8995817765646912e-04 0.0000000000000000e+00  -6.9195207624026911e-01 -3.5018769056909260e-03 0.0000000000000000e+00  -2.5968448569627955e-01 -5.0437445003452541e-03 0.0000000000000000e+00  -2.7857532005184704e-01 -4.0912458792564665e-03 0.0000000000000000e+00  -4.9412859402216264e-01 3.6369525227497590e-03 0.0000000000000000e+00  -9.9426454348055593e-01 3.7899682833669734e-04 0.0000000000000000e+00  -9.7784992288642170e-01 7.3799830977655284e-04 0.0000000000000000e+00  -9.9713982302449500e-01 1.6303790452221190e-04 0.0000000000000000e+00  -5.9252794588453728e-01 -2.8261254353899035e-03 0.0000000000000000e+00  -1.9059890419578010e-01 3.6780429310111704e-03 0.0000000000000000e+00  -6.1486846596406419e-01 -1.9068246267090472e-03 0.0000000000000000e+00  -9.6030033251337443e-01 7.4279955558009814e-04 0.0000000000000000e+00  -8.4153137728282634e-01 -2.6672745811354703e-03 0.0000000000000000e+00  -8.2403409568273223e-01 -2.5524022948887060e-03 0.0000000000000000e+00  -7.7725942131367742e-01 -2.7185935066287303e-04 0.0000000000000000e+00  -8.4638800713124196e-01 -1.5638701015820190e-03 0.0000000000000000e+00  -9.0208454959626483e-01 1.5363490096260701e-03 0.0000000000000000e+00  -8.3549758845502586e-01 -2.1687387714246498e-03 0.0000000000000000e+00  -7.7692174859732066e-01 3.6719193752835499e-03 0.0000000000000000e+00  -8.5249474866005592e-01 -1.2407997419899286e-03 0.0000000000000000e+00  -9.2622023893477978e-01 -1.7170268097158881e-03 0.0000000000000000e+00  -9.9885899557563196e-01 1.3565467851722746e-04 0.0000000000000000e+00  -9.8154362709573917e-01 5.4915723247545012e-04 0.0000000000000000e+00  -9.8242412177195471e-01 3.1521774594350576e-04 0.0000000000000000e+00  -8.5918431307999743e-01 -1.8711912710029366e-03 0.0000000000000000e+00  -5.8146988177351377e-01 -3.0672337628934176e-03 0.0000000000000000e+00  -9.9760903027190406e-01 7.3903108780276616e-06 0.0000000000000000e+00  -9.6157999472866384e-01 3.4483383220440533e-04 0.0000000000000000e+00  -8.9877103560002292e-01 -2.2053881064347802e-03 0.0000000000000000e+00  -9.6552288612024617e-01 -1.0451470247141437e-03 0.0000000000000000e+00  -9.8442930335885315e-01 -5.7568968239686547e-04 0.0000000000000000e+00  -9.0433748371197387e-01 1.9271187250531341e-03 0.0000000000000000e+00  -8.9371893322797513e-01 1.1773335680621000e-03 0.0000000000000000e+00  -7.6648495497554081e-01 -3.2514507627210421e-03 0.0000000000000000e+00  -3.8704965139614578e-01 2.7549552480964079e-03 0.0000000000000000e+00  -3.1030152123496990e-01 5.8005393786638715e-03 0.0000000000000000e+00  -5.7127173899682104e-01 4.3290850257492186e-03 0.0000000000000000e+00  -9.9097853916502121e-01 -2.0360103972794086e-04 0.0000000000000000e+00  -9.9369538731060070e-01 6.0401773991247687e-04 0.0000000000000000e+00  -7.5508639731565008e-01 -3.2138845887106152e-04 0.0000000000000000e+00  -4.1617835911827550e-01 -2.9036020647280614e-03 0.0000000000000000e+00  -4.5982820703045169e-01 6.0467177553452656e-05 0.0000000000000000e+00  -7.3266509923169210e-01 -1.4678040873629117e-03 0.0000000000000000e+00  -6.3632701537488701e-01 3.4658260864953716e-03 0.0000000000000000e+00  -6.7661806665737811e-01 9.2675549221704623e-04 0.0000000000000000e+00  -7.8498127535507001e-01 1.7021847098351861e-03 0.0000000000000000e+00  -9.5095052096305566e-01 -9.1204546776174622e-04 0.0000000000000000e+00  -9.9998034953650838e-01 -2.4496029643550354e-05 0.0000000000000000e+00  -9.4116438791209234e-01 1.2998791923490294e-03 0.0000000000000000e+00  -6.5381888634324326e-01 4.7376294922023554e-03 0.0000000000000000e+00  -9.5216800039064098e-01 -2.0479132277874401e-03 0.0000000000000000e+00  -9.7347484996288924e-01 9.5089317054020128e-04 0.0000000000000000e+00  -8.0994817975935895e-01 3.0422093142670192e-03 0.0000000000000000e+00  -7.0028659723908215e-01 -1.8380662307115048e-03 0.0000000000000000e+00  -9.3364193334635903e-01 2.3109232592984918e-03 0.0000000000000000e+00  -4.8794646572933886e-01 3.4333774400052489e-03 0.0000000000000000e+00  -9.9995135530257273e-01 -4.4510479474180187e-05 0.0000000000000000e+00  -9.9943151750093118e-01 8.7529927106255734e-05 0.0000000000000000e+00  -6.6263186616967151e-01 1.8605285708247488e-03 0.0000000000000000e+00  -5.0500989049629319e-01 -6.3183330821152683e-03 0.0000000000000000e+00  -9.6784389536687720e-01 -1.1874672551558940e-03 0.0000000000000000e+00  -7.9869844649388988e-01 -1.2192374387939298e-03 0.0000000000000000e+00  -7.3076996589712129e-01 3.8007304212361870e-03 0.0000000000000000e+00  -7.0014832948171524e-01 9.8350379247123809e-04 0.0000000000000000e+00  -9.4319202070488939e-01 1.2090972637190389e-03 0.0000000000000000e+00  -9.3139331590003038e-01 1.8472103536395501e-03 0.0000000000000000e+00  -3.6638476745049015e-01 2.8665745494311085e-03 0.0000000000000000e+00  -8.9775072636903941e-01 6.5807728999134341e-04 0.0000000000000000e+00  -6.5858689156069561e-01 3.2746126194923564e-03 0.0000000000000000e+00  -4.1868986212247955e-01 -3.6424708937853878e-03 0.0000000000000000e+00  -5.9506093694630968e-01 3.2355258726006176e-03 0.0000000000000000e+00  -4.3212990063955947e-01 4.3951885223561526e-03 0.0000000000000000e+00  -5.0681272214006712e-01 -4.3258012979852239e-03 0.0000000000000000e+00  -9.9672499341689058e-01 2.2095892955886764e-04 0.0000000000000000e+00  -9.9962647106834890e-01 -5.3809412212224572e-05 0.0000000000000000e+00  -9.3628993497159696e-01 -1.2288127925051830e-04 0.0000000000000000e+00  -9.9921242448467118e-01 -2.0068267455492644e-04 0.0000000000000000e+00  -7.5247422481009019e-01 -2.6476628803967506e-03 0.0000000000000000e+00  -8.8692873045652687e-01 -1.4494105649835165e-03 0.0000000000000000e+00  -8.0990757593365115e-01 1.0497484253760188e-03 0.0000000000000000e+00  -2.7145087457112083e-01 -2.1911026773663300e-04 0.0000000000000000e+00  -3.1428953980228902e-01 2.8334815037422464e-03 0.0000000000000000e+00  -9.8212028459747391e-01 -8.5608669820930183e-04 0.0000000000000000e+00  -7.1966146623977656e-01 1.6468196825226572e-03 0.0000000000000000e+00  -8.5437235661457245e-01 2.7549900625513102e-03 0.0000000000000000e+00  -9.1660188621503957e-01 9.3497010653231793e-04 0.0000000000000000e+00  -7.9335474983540988e-01 3.1126109035130023e-03 0.0000000000000000e+00  -6.4000296081739461e-01 2.9481479759734487e-03 0.0000000000000000e+00  -9.2819291627772349e-01 -1.2843828683736236e-03 0.0000000000000000e+00  -9.7557289840808248e-01 -7.5326342291015536e-04 0.0000000000000000e+00  -9.8055603078152731e-01 -1.1960558568422375e-03 0.0000000000000000e+00  -9.5532398166551691e-01 -1.7659435859874728e-03 0.0000000000000000e+00  -8.1020120233336956e-01 3.2723479870194749e-03 0.0000000000000000e+00  -8.6961432129622895e-01 -2.1459148458959632e-03 0.0000000000000000e+00  -8.7134080007471626e-01 -2.8460997612484995e-03 0.0000000000000000e+00  -8.0030736050614060e-01 -3.3210375375561374e-04 0.0000000000000000e+00  -5.2727906447983075e-01 -1.4265031221132041e-03 0.0000000000000000e+00  -5.3222268783153726e-01 -1.0460238937557709e-03 0.0000000000000000e+00  -6.2638508034930152e-01 -3.1083914412672071e-03 0.0000000000000000e+00  -3.1690513786888319e-01 1.9788788533527824e-03 0.0000000000000000e+00  -4.1944840042655951e-01 3.4678838708237791e-03 0.0000000000000000e+00  -9.9117000470879058e-01 2.3697401680411456e-04 0.0000000000000000e+00  -7.1023410088648153e-02 5.2877218588470304e-03 0.0000000000000000e+00  -5.3851057814983769e-02 -1.5451426180684083e-03 0.0000000000000000e+00  -9.9951688671019179e-01 2.0239575685393474e-04 0.0000000000000000e+00  -5.5756163329272146e-01 -4.7935413757719814e-03 0.0000000000000000e+00  -5.5855935114989375e-01 1.1828680196316332e-03 0.0000000000000000e+00  -5.9502775445534684e-01 -4.8656766122688877e-03 0.0000000000000000e+00  -7.2419422379401988e-01 -3.6055829266672668e-03 0.0000000000000000e+00  -9.3193732130399820e-01 -1.1010435373416949e-03 0.0000000000000000e+00  -8.8699191705182034e-01 -1.4013660166595221e-04 0.0000000000000000e+00  -9.9126142462443911e-01 -5.2212734606843850e-04 0.0000000000000000e+00  -9.9193639938709932e-01 5.2138684484126507e-04 0.0000000000000000e+00  -9.6538849969278329e-01 -6.0549584181956995e-04 0.0000000000000000e+00  -9.2428739518410774e-01 -2.1812671048867527e-03 0.0000000000000000e+00  -9.9955776907707072e-01 -3.2164847767912619e-05 0.0000000000000000e+00  -9.9005755569390952e-01 2.2144440436523591e-04 0.0000000000000000e+00  -9.6512382917474371e-01 -1.4320658147641274e-03 0.0000000000000000e+00  -9.9084788028910686e-01 -5.9208888817224858e-04 0.0000000000000000e+00  -7.2986799783757361e-01 2.4190891247673377e-03 0.0000000000000000e+00  -9.2413557947853442e-01 -1.8074905445332190e-03 0.0000000000000000e+00  -5.4015143925603570e-01 5.0730361011407377e-03 0.0000000000000000e+00  -1.9459007592017358e-01 2.5129201883933487e-03 0.0000000000000000e+00  -1.9409789647148784e-01 2.5447820105731073e-03 0.0000000000000000e+00  -5.2341642206222816e-01 -3.2543686116947440e-04 0.0000000000000000e+00  -6.2874136194109709e-01 -1.8228764520892282e-03 0.0000000000000000e+00  -7.2679735376627341e-01 2.6053589225823390e-03 0.0000000000000000e+00  -9.9299229169963066e-01 6.6133841055754372e-04 0.0000000000000000e+00  -9.6793760850925259e-01 -6.0489644241867868e-04 0.0000000000000000e+00  -9.9451375218626459e-01 4.7685636442232338e-04 0.0000000000000000e+00  -6.4000507835626486e-01 -8.8336486099698658e-04 0.0000000000000000e+00  -9.5212029168897705e-01 -5.0842825343860865e-04 0.0000000000000000e+00  -9.4770774763179522e-01 1.1105263091744644e-03 0.0000000000000000e+00  -8.1111644369334068e-01 2.9099248560325863e-03 0.0000000000000000e+00  -7.3369547222105180e-01 -3.9508207272512530e-03 0.0000000000000000e+00  -8.1255772266852977e-01 -5.1334968021193861e-04 0.0000000000000000e+00  -9.2189167183386533e-01 1.8231183331138823e-03 0.0000000000000000e+00  -2.1189633652092538e-01 5.4309667603610334e-03 0.0000000000000000e+00  -2.9330042946442059e-01 -4.2523472520964445e-03 0.0000000000000000e+00  -9.8011412253365005e-01 5.4592536893305343e-04 0.0000000000000000e+00  -9.7891033528782367e-01 1.1760322874064810e-03 0.0000000000000000e+00  -8.8653746026973601e-01 -1.4008104697693646e-03 0.0000000000000000e+00  -9.7686456716624637e-01 5.1363354258415761e-04 0.0000000000000000e+00  -9.9478040119865474e-01 -4.7474128942623373e-04 0.0000000000000000e+00  -4.5048269677887010e-01 3.3905752694196219e-03 0.0000000000000000e+00  -8.5945076273537691e-01 2.1563520737979402e-03 0.0000000000000000e+00  -8.9608098069236752e-01 3.4430118936830678e-03 0.0000000000000000e+00  -7.2550683198393373e-01 -4.0705836009613527e-04 0.0000000000000000e+00  -9.9350642078867157e-01 -3.9601743805045553e-04 0.0000000000000000e+00  -8.7135902841235224e-01 1.4348145997211681e-03 0.0000000000000000e+00  -9.2666072828131785e-01 1.0382845288343656e-03 0.0000000000000000e+00  -8.8141939950440751e-01 1.0570745702267181e-03 0.0000000000000000e+00  -9.3100503448863903e-01 1.3532482039823046e-03 0.0000000000000000e+00  -8.5050474549394628e-01 -2.6208086538662689e-03 0.0000000000000000e+00  -9.9912767631585098e-01 1.4659297359931323e-04 0.0000000000000000e+00  -9.9472738593914700e-01 -2.5888078611946419e-04 0.0000000000000000e+00  -7.0465584201311926e-01 1.6066896494519867e-03 0.0000000000000000e+00  -4.6922937802194903e-01 4.8359089677829648e-03 0.0000000000000000e+00  -8.7699518023526535e-01 -6.8679094568963039e-04 0.0000000000000000e+00  -8.0182106255962349e-01 2.6419260332296857e-03 0.0000000000000000e+00  -9.8778296329402826e-01 -7.0453138779158486e-04 0.0000000000000000e+00  -9.6681822249935612e-01 1.0264998285540450e-03 0.0000000000000000e+00  -9.2238415509202076e-01 -2.5066398207593266e-03 0.0000000000000000e+00  -9.7887379877371938e-01 -6.7254110247155774e-04 0.0000000000000000e+00  -9.7333367117388836e-01 9.8313335519571721e-04 0.0000000000000000e+00  -4.6026662006967312e-01 2.6553412045042524e-03 0.0000000000000000e+00  -7.6351386104115859e-01 1.6110697879810065e-03 0.0000000000000000e+00  -8.0621949279313876e-01 3.4404981677080837e-03 0.0000000000000000e+00  -9.9670812733713388e-01 4.1206049029079983e-04 0.0000000000000000e+00  -9.6610721572778424e-01 8.9179140661377332e-04 0.0000000000000000e+00  -9.6670659606590448e-01 -1.1149578589459141e-03 0.0000000000000000e+00  -7.1194812889346670e-01 1.7158308882128381e-03 0.0000000000000000e+00  -8.8555646995563941e-01 1.2386108117910799e-03 0.0000000000000000e+00  -7.9182462129932774e-01 -3.6630982348063723e-03 0.0000000000000000e+00  -8.2109503484718482e-01 -2.6395689848429243e-03 0.0000000000000000e+00  -9.8177007629074442e-01 -6.6671064328593932e-04 0.0000000000000000e+00  -7.5148945094736763e-01 1.5120896391227420e-03 0.0000000000000000e+00  -9.6240660346374018e-01 1.4441908777361734e-03 0.0000000000000000e+00  -9.8929086261511134e-01 1.7143467098967857e-04 0.0000000000000000e+00  -9.9548496333205638e-01 1.3175701750639535e-04 0.0000000000000000e+00  -8.6030438336138515e-01 1.9998188882985879e-03 0.0000000000000000e+00  -5.0558611424671762e-01 -7.5211905408462121e-04 0.0000000000000000e+00  -7.6593259844809980e-01 -5.6980324166899798e-04 0.0000000000000000e+00  -8.6252382312215503e-01 2.9073641306653353e-03 0.0000000000000000e+00  -3.1612576194024899e-01 -1.0530690843390533e-03 0.0000000000000000e+00  -1.9348852765407948e-01 -4.2535125294673737e-03 0.0000000000000000e+00  -8.4384165904174735e-01 -2.1490340308359945e-03 0.0000000000000000e+00  -9.3662324204588987e-01 8.6689944756945803e-04 0.0000000000000000e+00  -8.8729546204551601e-01 -6.6904850382618064e-04 0.0000000000000000e+00  -9.0886878029109208e-01 -8.6925520923897270e-04 0.0000000000000000e+00  -4.0554892927926611e-01 3.8994227023363536e-03 0.0000000000000000e+00  -9.9973779607462432e-01 1.6502780331872913e-04 0.0000000000000000e+00  -6.4847913697524162e-01 1.6163384431848726e-03 0.0000000000000000e+00  -5.3306823979424267e-01 -3.1366898461310522e-03 0.0000000000000000e+00  -6.0304667465580242e-01 -2.6391129988209833e-03 0.0000000000000000e+00  -6.1543258415834357e-01 -2.3635355568680794e-03 0.0000000000000000e+00  -6.5508741179384411e-01 -4.3541679882471152e-03 0.0000000000000000e+00  -8.6818029980154199e-01 1.4098963428856859e-03 0.0000000000000000e+00  -8.8348430350128127e-01 -2.3126886479767350e-03 0.0000000000000000e+00  -9.3239911669920073e-01 -8.4072906065896930e-04 0.0000000000000000e+00  -9.7011601793233426e-01 -6.5381521901226869e-04 0.0000000000000000e+00  -2.5519537309735918e-01 1.5448766334086039e-03 0.0000000000000000e+00  -3.4937590807452168e-01 1.8901885793193287e-03 0.0000000000000000e+00  -3.1264233081310205e-01 -1.7207774387382468e-03 0.0000000000000000e+00  -9.5699092876115865e-01 8.1841807544819067e-04 0.0000000000000000e+00  -9.5922845892510622e-01 -2.2653317045066151e-04 0.0000000000000000e+00  -7.9692999909776696e-01 -3.0821962998793806e-03 0.0000000000000000e+00  -5.4117259