<?xml version="1.0"?>
<VTKFile type="UnstructuredGrid"  version="0.1"  >
<UnstructuredGrid>
<Piece  NumberOfPoints="1385" NumberOfCells="2640">
<Points>
<DataArray  type="Float64"  NumberOfComponents="3"  format="ascii">0 0 0  1 0 0  1 1 0  0 1 0  0.5 0 0  1 0.5 0  0.5 1 0  0 0.5 0  0.5 0.5 0  0 0.25 0  0.25 0 0  0.25 1 0  0 0.75 0  1 0.25 0  0.75 0 0  1 0.75 0  0.75 1 0  0.7083333333333333 0.2916666666666667 0  0.2916666666666666 0.7083333333333334 0  0.375 0.25 0  0.75 0.625 0  0.2569444444444444 0.4652777777777778 0  0.5366379310344828 0.7535919540229885 0  0.1875 0.1875 0  0.8125 0.8125 0  0.869047619047619 0.375 0  0.1450441919191919 0.6052714646464646 0  0.375 0.8690476190476191 0  0.5526960784313725 0.1825980392156862 0  0.8385416666666666 0.1614583333333334 0  0.1614583333333333 0.8385416666666667 0  0.6736111111111112 0.4652777777777778 0  0.1367521367521368 0.3477564102564102 0  0.6570970491253563 0.8648656830417855 0  0.5102479397556124 0.3386260301221938 0  0.3654513888888889 0.5737847222222222 0  0.6929750044954185 0.1362784921584263 0  0.388576102743835 0.411911725237599 0  0.6091269841269842 0.5942460317460317 0  0.875 0.6875 0  0.427278890279516 0.119889445139758 0  0.8544456845238095 0.5213913690476191 0  0.125 0 0  0 0.125 0  1 0.875 0  0.875 1 0  0.1280008648150532 0.4769292340226777 0  0.2695382451711197 0.3321750950221553 0  0.7031567235715964 0.7447810921428012 0  0.625 0 0  0.375 0 0  0.125 1 0  0.875 0 0  0 0.375 0  0 0.625 0  1 0.375 0  0.375 1 0  1 0.125 0  0 0.875 0  0.625 1 0  1 0.625 0  0.2979288363930608 0.1201429454643536 0  0.410919540229885 0.7484605911330049 0  0.5325041980395562 0.878905151526474 0  0.4831670727569156 0.6331060043826487 0  0.1735997378973042 0.7204747378973043 0  0.2534919507575758 0.5772372159090909 0  0.2633928571428572 0.8876488095238095 0  0.8199404761904761 0.2730654761904762 0  0.75830270586982 0.3919383189517417 0  0.5750282248382511 0.4237522353023667 0  0.6008360210023379 0.2794828358598495 0  0.08163442644334186 0.6821295860397322 0  0.08333333333333333 0.1875 0  0.2028380815996574 0.08844602719988583 0  0.2766521142611967 0.2325436572164097 0  0.90625 0.78125 0  0.890625 0.890625 0  0.7545696325008384 0.8973565441669461 0  0.5625 0.08086590340834317 0  0.09077380952380953 0.09077380952380952 0  0.4610923478694773 0.209034015149656 0  0.7542527598351648 0.5248380520595106 0  0.6459235536037465 0.3619913988405765 0  0.7560381768882634 0.20506142233852 0  0.07073252688172042 0.8125 0  0.0924753097241701 0.9078102849914793 0  0.9292674731182795 0.1875 0  0.9075246902758297 0.09218971500852073 0  0.8125 0.07073252688172045 0  0.2400955776842301 0.7869705776842302 0  0.9121050213379069 0.2781978201831695 0  0.7916878157143976 0.7239689078571988 0  0.9345238095238094 0.4375 0  0.4375 0.9345238095238095 0  0.3725616989755203 0.6651895248862173 0  0.06536271996350887 0.5625 0  0.9348362560379583 0.5625 0  0.456646798987055 0.8277247094351965 0  0.1875 0.9355758238725954 0  0.6169761231634859 0.6939779188977889 0  0.6226854751147515 0.7827911461419014 0  0.3305695598137626 0.7901697871282585 0  0.5865305325818898 0.5101085479043448 0  0.6622701297028378 0.2177663989757395 0  0.1354166666666667 0.2591702279202279 0  0 0.3125 0  0.2094429575680048 0.3936361846162499 0  0.836666296419157 0.607917407161686 0  0.6875 1 0  0.214261555450504 0.6492551722020035 0  0 0.4375 0  0.07731537126068377 0.40625 0  0.3427725432967068 0.4879566233699599 0  0.3550792513951871 0.3331953632609953 0  0.4462473953896857 0.2887834789342508 0  0.4747801464819794 0.417386052030127 0  0.8229836475148948 0.4443292349237342 0  0.7322605135514757 0.8199240278289671 0  0.6756431877205955 0.5468989748126787 0  0.1968419507215863 0.5194573482612496 0  0.3285590277777778 0.9345238095238095 0  0.8125 1 0  0.4198917601920009 0.5134893045331258 0  0.5232405503206691 0.2595791787880157 0  1 0.9375 0  0.1987510870015086 0.3025185951894431 0  0.5625 1 0  0.6005390654136388 0.9228110509230952 0  0.6411254848194414 0.07704872765442942 0  0.3357233162523242 0.1855113224530532 0  0.6730653396610877 0.6393887462324165 0  0.310966987234063 0.6240019765311626 0  0.7368737836204349 0.07457755202327881 0  0.6192316414418171 0.1485238406378594 0  0.5432429670607106 0.678552703844006 0  0.4754371679695679 0.7103946803120881 0  0.07501324890749672 0.3043839897335739 0  0.5358146975860403 0.5688321463205916 0  0.3115271739500156 0.3982137365971444 0  0.3625191397122174 0.0767854603650549 0  0.5024029442563831 0.1264128223758444 0  0.4375 0 0  0.4699946908887376 0.06379961173775725 0  0.9375 0.71875 0  0.9272105898044465 0.635671179608893 0  0.9375 1 0  0.6690971819568612 0.9331530898202766 0  0.1073454944778885 0.7499206387638554 0  0.8699082999280406 0.2232403652524313 0  0.5773118091863964 0.3548027349159383 0  0.1354166666666667 0.1428571428571428 0  0.3125 0 0  0.8241684193077341 0.9257452995055244 0  0.4352314948354036 0.3586940847489378 0  0.4351301473778832 0.5819726043539077 0  0.8073232928518163 0.3419398170341962 0  0.7775949246947366 0.1298519409204575 0  0.6875 0 0  0.7413513991851041 0.457933324954483 0  0.939453125 0.841796875 0  0.5630355154606987 0.8171875156478349 0  0.9345238095238095 0.3461466592368577 0  0.9375 0 0  1 0.0625 0  0.0625 1 0  0 0.9375 0  0.06552178593177167 0.4969053669623468 0  0.1424866619031703 0.4130277709291224 0  0.1275287182444726 0.5422946908002588 0  0.2637686595586339 0.06413888464529549 0  0.2524263535491086 0.1697437503243817 0  0.7367218397988525 0.6888573970660841 0  0.0625 0 0  0 0.0625 0  0.8463594539285995 0.7578283617857982 0  0.3128751192101563 0.2851997374369947 0  0.4015281788351144 0.1806421385113692 0  0.1910251795116588 0.4553332197174453 0  0.287797471442006 0.5222621440543902 0  0.3962628745986055 0.8097380085535307 0  0.3505895299554843 0.7304878890838692 0  0.5019151500495276 0.9356042615328103 0  0.9374389419410134 0.4999931039076005 0  0.3125 1 0  0.1875 1 0  1 0.5625 0  0.4375 1 0  1 0.3125 0  1 0.4375 0  0.8125 0 0  1 0.1875 0  0.5625 0 0  0.1875 0 0  0 0.1875 0  0 0.5625 0  0 0.6875 0  0 0.8125 0  1 0.6875 0  1 0.8125 0  0.8021696218581627 0.6612893947866073 0  0.06154922295426143 0.6239401126946708 0  0.9359375 0.9359375 0  0.4666158024849896 0.7691515918155014 0  0.2318201265217025 0.7064974250277525 0  0.1565954253579966 0.6635489312486841 0  0.1598132503680848 0.7787147500325552 0  0.3146529991605639 0.8510876378205265 0  0.1461873209418733 0.05982804528877814 0  0.06109554988524315 0.2446551776247686 0  0.8054950308560754 0.5564226538848541 0  0.470541749491976 0.8853316336952531 0  0.6948472567465137 0.4042308563372457 0  0.8802828472348889 0.4658893256343853 0  0.6788075634946739 0.7974194205806069 0  0.2155048659603867 0.2428201584940968 0  0.8131223143423806 0.2132171049028394 0  0.4330798005432235 0.6671274900735726 0  0.6015279126162613 0.2187368078743274 0  0.8061636571464289 0.8703766630361714 0  0.7008230445061776 0.3478568388444072 0  0.8638466246958771 0.3147095987735538 0  0.204801534004265 0.8789209409594009 0  0.2449006736431132 0.9424182882803838 0  0.7611268409371427 0.2643056884799992 0  0.7552800864046191 0.7678006649959446 0  0.5983639638906616 0.864113435029236 0  0.1956559506814437 0.577281203577426 0  0.3527670268164207 0.1320469097565204 0  0.7530364577483248 0.3262386077083089 0  0.4535919187979363 0.4690107087451527 0  0.8824869791666666 0.8336588541666666 0  0.8814453125 0.9451171875 0  0.5582987942628019 0.622421666543858 0  0.6817532446064828 0.6939001801354731 0  0.3830295138888889 0.9450968952922078 0  0.4140603937012541 0.05211333372716105 0  0.5535864501303013 0.3060591985391672 0  0.6560130086346878 0.2729726562211558 0  0.890203140221684 0.5948314305427268 0  0.7043857725999024 0.593980890020804 0  0.5105843922695152 0.8016828014338627 0  0.05365910753708378 0.7315110031682004 0  0.616904573672261 0.4621186633436136 0  0.5338511646455415 0.387875898899613 0  0.5231769258947843 0.4477682463140762 0  0.650302973237622 0.7370722302085519 0  0.3927483139621257 0.4662414504529014 0  0.8034595960585199 0.4972538342758211 0  0.7738337841682438 0.9496376207663251 0  0.7193737507158268 0.954685447650112 0  0.482525916480686 0.5528257169991676 0  0.2533501157346781 0.2809495420003238 0  0.3118487924482243 0.5702930126570319 0  0.6257598847669529 0.4104163315430518 0  0.1354166666666667 0.1955605158730158 0  0.04166666666666666 0.15625 0  0.3956448985530264 0.6174149462065157 0  0.8102897701818546 0.3938784238208349 0  0.2641154190013625 0.8344469561943118 0  0.642852220770013 0.5068794586563659 0  0.05271458179508221 0.355846947336007 0  0.7021551360070266 0.8921457280225779 0  0.5692125776683765 0.1328512638850284 0  0.5206162811937602 0.04865158770992991 0  0.6001838442201555 0.04540556991297563 0  0.2597716608242787 0.4118346398477178 0  0.4040584599473195 0.3179589136784675 0  0.1480337679295207 0.8941560631483065 0  0.1344356707112281 0.9466251177415842 0  0.7114696411829317 0.4983917389078826 0  0.7585704698442475 0.5751926345944629 0  0.2189131956390871 0.04022068508159698 0  0.2476935455192043 0.1123642267635843 0  0.185995005654517 0.1365524537205238 0  0.6223414373308711 0.643380839165121 0  0.5732602596637543 0.7190051747306219 0  0.268358222364537 0.6586246524467934 0  0.3265879848129173 0.2369791782191225 0  0.1267095595787346 0.7034787238999181 0  0.1115202922226038 0.6421997933884982 0  0.3128688392940203 0.07260997451790079 0  0.550724900485678 0.9253360991633187 0  0.7142608810459105 0.2384904702214873 0  0.7045869185243887 0.1871826897887429 0  0.890625 0.734375 0  0.953125 0.765625 0  0.2111812642821677 0.8286209446459138 0  0.9590293078204457 0.09375 0  0.953431269039847 0.1435719386408004 0  0.04097069217955424 0.90625 0  0.04656873096015299 0.8564280613591996 0  0.1078743037981226 0.8541621766048062 0  0.8921256962018773 0.1458378233951939 0  0.8521576979194619 0.1084496634207678 0  0.8655663982740958 0.05464346096571447 0  0.04005659640905543 0.09375 0  0.1001448316533417 0.04246776244228261 
[...]
<PointData  Vectors="f_8394-0-0"> 
<DataArray  type="Float64"  Name="f_8394-0-0"  NumberOfComponents="3" format="ascii">-1.4015671199723193e-02 7.1392660476359143e-03 0.0000000000000000e+00  -8.4384111182874455e-01 1.4902397083391694e-03 0.0000000000000000e+00  -9.1294807668911093e-01 2.5501624376685749e-03 0.0000000000000000e+00  -8.3768218229137237e-01 -1.3214532532652198e-05 0.0000000000000000e+00  -4.8632145974808511e-01 2.9557875528847810e-03 0.0000000000000000e+00  -9.9661675527593496e-01 -5.7456882468921722e-05 0.0000000000000000e+00  -9.9775690124442973e-01 1.7216267388837583e-04 0.0000000000000000e+00  -4.8127731716711541e-01 5.5805005174431321e-03 0.0000000000000000e+00  -8.3837165812746695e-01 -1.7144048366075082e-03 0.0000000000000000e+00  -2.5426017794797201e-01 2.7925974611190119e-03 0.0000000000000000e+00  -2.5495339880525664e-01 3.6963118147720314e-03 0.0000000000000000e+00  -9.4654431083571511e-01 -1.0078885129558568e-03 0.0000000000000000e+00  -6.7416748459946507e-01 4.8581880326899890e-04 0.0000000000000000e+00  -9.4677189032007636e-01 -1.7278536602537975e-03 0.0000000000000000e+00  -6.8419633641091482e-01 -1.0245526347638810e-03 0.0000000000000000e+00  -9.8413755081242860e-01 1.0056336036621816e-03 0.0000000000000000e+00  -9.8549559731162351e-01 6.5839214832630333e-04 0.0000000000000000e+00  -8.4631275544894924e-01 1.4192026081670389e-03 0.0000000000000000e+00  -8.4383622724083440e-01 2.8344131369949510e-03 0.0000000000000000e+00  -5.8093022485536472e-01 -2.4641634589832595e-03 0.0000000000000000e+00  -9.7931697730352052e-01 -9.3526867581339435e-04 0.0000000000000000e+00  -6.6323107239571710e-01 -1.0482769184519958e-03 0.0000000000000000e+00  -9.6347665382033010e-01 5.7684095343318864e-04 0.0000000000000000e+00  -3.5853565410700222e-01 -4.1340351820048915e-03 0.0000000000000000e+00  -9.9872632922735760e-01 2.0894336676480219e-04 0.0000000000000000e+00  -9.4977203495773588e-01 1.0055269611603523e-03 0.0000000000000000e+00  -6.7588541077639830e-01 -1.6245360235621620e-03 0.0000000000000000e+00  -9.5060544884388620e-01 4.7724657499793183e-04 0.0000000000000000e+00  -6.7737181374037059e-01 3.1663814350808006e-03 0.0000000000000000e+00  -8.3623630864738496e-01 -1.5288188830905880e-03 0.0000000000000000e+00  -8.3804325308756944e-01 -2.4287934123724264e-03 0.0000000000000000e+00  -9.1261924287934959e-01 7.2951468265680663e-04 0.0000000000000000e+00  -4.6096974613484931e-01 -1.0853557147581794e-03 0.0000000000000000e+00  -9.9907482158379490e-01 2.0120146269364536e-04 0.0000000000000000e+00  -7.4570035599211493e-01 -3.6152807170476975e-03 0.0000000000000000e+00  -8.1347262984173674e-01 1.6248783554081714e-03 0.0000000000000000e+00  -7.3104207133599075e-01 -2.5550116061425487e-03 0.0000000000000000e+00  -7.1927536523139146e-01 -1.7592566561225077e-03 0.0000000000000000e+00  -9.3139123130351975e-01 -8.5284823705855661e-04 0.0000000000000000e+00  -9.9974855692229692e-01 -5.1663590343614674e-05 0.0000000000000000e+00  -5.2680532467391972e-01 4.1068927542163847e-03 0.0000000000000000e+00  -9.8278954969975252e-01 3.3124214437067756e-04 0.0000000000000000e+00  -1.3313723510297792e-01 4.5733990589771345e-03 0.0000000000000000e+00  -1.1454476774665916e-01 -7.8389555181358761e-04 0.0000000000000000e+00  -9.5426830947892616e-01 1.8206195015399440e-03 0.0000000000000000e+00  -9.5545557236093470e-01 1.1323935359957016e-03 0.0000000000000000e+00  -5.7664751233384748e-01 2.1158039708832066e-03 0.0000000000000000e+00  -5.7026843189746845e-01 -4.7356165130672256e-03 0.0000000000000000e+00  -9.9133923213956676e-01 -4.8646277927233417e-04 0.0000000000000000e+00  -5.9147181941899429e-01 5.7329086459814889e-04 0.0000000000000000e+00  -3.7293927771361896e-01 5.7886858991881007e-03 0.0000000000000000e+00  -8.9902379588408565e-01 -2.2843319841890919e-03 0.0000000000000000e+00  -7.7273902473628897e-01 3.3164010620369000e-03 0.0000000000000000e+00  -3.7265565958299401e-01 5.4640023568394425e-03 0.0000000000000000e+00  -5.9045202828817100e-01 2.3698127827100901e-03 0.0000000000000000e+00  -9.7983242535625104e-01 -1.2016674863448151e-03 0.0000000000000000e+00  -9.7925748801592194e-01 1.8626263946955307e-04 0.0000000000000000e+00  -9.0051911232227666e-01 -2.5116136531629363e-03 0.0000000000000000e+00  -7.6847694919486664e-01 2.6838249817396631e-03 0.0000000000000000e+00  -9.9892148894074728e-01 -5.3583409026440415e-05 0.0000000000000000e+00  -9.9830933917084563e-01 2.9497080213441995e-04 0.0000000000000000e+00  -4.0067211106588291e-01 5.2382429929132002e-03 0.0000000000000000e+00  -9.1455313277226247e-01 -1.3226522555789266e-03 0.0000000000000000e+00  -9.8663423648296422e-01 -9.9125537798183672e-04 0.0000000000000000e+00  -8.9488822015693703e-01 -2.1102570612205884e-03 0.0000000000000000e+00  -7.8485986092950888e-01 2.1667742643128873e-03 0.0000000000000000e+00  -7.4509087235146387e-01 4.7422679662206813e-03 0.0000000000000000e+00  -9.1309415661248672e-01 -2.2411709396838175e-03 0.0000000000000000e+00  -8.8313023457007389e-01 -1.3442472355218449e-03 0.0000000000000000e+00  -9.1308069614101073e-01 1.5632042931309903e-03 0.0000000000000000e+00  -8.4105007697371259e-01 2.5145890286568107e-03 0.0000000000000000e+00  -7.7646937170699992e-01 8.8969647721914846e-04 0.0000000000000000e+00  -6.9187126484076478e-01 -3.5012474419112705e-03 0.0000000000000000e+00  -2.5966360749902340e-01 -5.0422360849301240e-03 0.0000000000000000e+00  -2.7857361690124288e-01 -4.0902468234643719e-03 0.0000000000000000e+00  -4.9410556579017911e-01 3.6361058242297961e-03 0.0000000000000000e+00  -9.9431203344703578e-01 3.7863232783846845e-04 0.0000000000000000e+00  -9.7790418982069638e-01 7.3800905317857209e-04 0.0000000000000000e+00  -9.9715972621448579e-01 1.6308926848929151e-04 0.0000000000000000e+00  -5.9254225087847412e-01 -2.8255190213542503e-03 0.0000000000000000e+00  -1.9058999066070345e-01 3.6770069034633424e-03 0.0000000000000000e+00  -6.1486095985016065e-01 -1.9063495745145764e-03 0.0000000000000000e+00  -9.6030639943870111e-01 7.4269226731804583e-04 0.0000000000000000e+00  -8.4152801941923705e-01 -2.6668020047609931e-03 0.0000000000000000e+00  -8.2405005955604582e-01 -2.5518978759559718e-03 0.0000000000000000e+00  -7.7716697839549542e-01 -2.7221173518965358e-04 0.0000000000000000e+00  -8.4629314043980608e-01 -1.5642848740343622e-03 0.0000000000000000e+00  -9.0212259845877696e-01 1.5357417090349768e-03 0.0000000000000000e+00  -8.3554009155166287e-01 -2.1693017514278212e-03 0.0000000000000000e+00  -7.7695334123503046e-01 3.6714694586821306e-03 0.0000000000000000e+00  -8.5242265898981884e-01 -1.2404834903341766e-03 0.0000000000000000e+00  -9.2625404962780433e-01 -1.7171491744361611e-03 0.0000000000000000e+00  -9.9887714541126160e-01 1.3529702114994935e-04 0.0000000000000000e+00  -9.8158061583539413e-01 5.4893585431735337e-04 0.0000000000000000e+00  -9.8238050274298661e-01 3.1553735806119209e-04 0.0000000000000000e+00  -8.5913396595175362e-01 -1.8708219698068684e-03 0.0000000000000000e+00  -5.8140232604071451e-01 -3.0660309177283906e-03 0.0000000000000000e+00  -9.9765006273784385e-01 7.3772584258460783e-06 0.0000000000000000e+00  -9.6153655518410686e-01 3.4471491087417760e-04 0.0000000000000000e+00  -8.9868819547530854e-01 -2.2057052358269158e-03 0.0000000000000000e+00  -9.6550706119096696e-01 -1.0451016177853711e-03 0.0000000000000000e+00  -9.8441587780128748e-01 -5.7562607844575953e-04 0.0000000000000000e+00  -9.0427547297708077e-01 1.9266882777582151e-03 0.0000000000000000e+00  -8.9370021031727953e-01 1.1771781296073258e-03 0.0000000000000000e+00  -7.6649223945951905e-01 -3.2507063798068447e-03 0.0000000000000000e+00  -3.8701814640217613e-01 2.7543799489496146e-03 0.0000000000000000e+00  -3.1025888713312777e-01 5.7996508812691583e-03 0.0000000000000000e+00  -5.7122748651932176e-01 4.3284246571664575e-03 0.0000000000000000e+00  -9.9100099741459147e-01 -2.0352918982247115e-04 0.0000000000000000e+00  -9.9370665889640275e-01 6.0425481528936231e-04 0.0000000000000000e+00  -7.5502076847160948e-01 -3.2131637426638555e-04 0.0000000000000000e+00  -4.1612087075379489e-01 -2.9029264272836808e-03 0.0000000000000000e+00  -4.5977782698398101e-01 6.0325561111712611e-05 0.0000000000000000e+00  -7.3262335791623123e-01 -1.4675297334797444e-03 0.0000000000000000e+00  -6.3629874598772052e-01 3.4650065748509373e-03 0.0000000000000000e+00  -6.7659955830837626e-01 9.2643513333900973e-04 0.0000000000000000e+00  -7.8495454538880627e-01 1.7017674057671073e-03 0.0000000000000000e+00  -9.5096951534167240e-01 -9.1172148968637901e-04 0.0000000000000000e+00  -9.9999018768750347e-01 -2.4533840108420524e-05 0.0000000000000000e+00  -9.4115786602360851e-01 1.2994729809861494e-03 0.0000000000000000e+00  -6.5376211547504426e-01 4.7366206524389609e-03 0.0000000000000000e+00  -9.5210639216704562e-01 -2.0483163144716932e-03 0.0000000000000000e+00  -9.7351925606696521e-01 9.5175635178645912e-04 0.0000000000000000e+00  -8.0990965228119172e-01 3.0414759656929302e-03 0.0000000000000000e+00  -7.0027874707118465e-01 -1.8376090448067040e-03 0.0000000000000000e+00  -9.3373622361276065e-01 2.3119153111584301e-03 0.0000000000000000e+00  -4.8791162903853702e-01 3.4326011464049164e-03 0.0000000000000000e+00  -9.9993366344505841e-01 -4.4277856371843782e-05 0.0000000000000000e+00  -9.9942007114135356e-01 8.7666973343281107e-05 0.0000000000000000e+00  -6.6264837770678786e-01 1.8599995787309531e-03 0.0000000000000000e+00  -5.0499535623183145e-01 -6.3169841958092554e-03 0.0000000000000000e+00  -9.6783697064429608e-01 -1.1874374245546687e-03 0.0000000000000000e+00  -7.9864402452132577e-01 -1.2192959726702313e-03 0.0000000000000000e+00  -7.3079420613959456e-01 3.7994181431857954e-03 0.0000000000000000e+00  -7.0015551820406619e-01 9.8321671816528622e-04 0.0000000000000000e+00  -9.4316345039343785e-01 1.2089765442853118e-03 0.0000000000000000e+00  -9.3135401000212292e-01 1.8467690142724980e-03 0.0000000000000000e+00  -3.6634610755777308e-01 2.8665591757852937e-03 0.0000000000000000e+00  -8.9772332778293162e-01 6.5777178762527200e-04 0.0000000000000000e+00  -6.5854786206666127e-01 3.2737067020737753e-03 0.0000000000000000e+00  -4.1869490663312425e-01 -3.6414233496492310e-03 0.0000000000000000e+00  -5.9506195376663928e-01 3.2345822904941732e-03 0.0000000000000000e+00  -4.3214327051487528e-01 4.3946532069938926e-03 0.0000000000000000e+00  -5.0682305622754276e-01 -4.3245432500298026e-03 0.0000000000000000e+00  -9.9677531400989217e-01 2.2095575789676802e-04 0.0000000000000000e+00  -9.9966903905192539e-01 -5.3642761035588293e-05 0.0000000000000000e+00  -9.3637140547861175e-01 -1.2272059535040465e-04 0.0000000000000000e+00  -9.9921765375408633e-01 -2.0012605178938367e-04 0.0000000000000000e+00  -7.5239128118735521e-01 -2.6473200989404755e-03 0.0000000000000000e+00  -8.8695833452987172e-01 -1.4492458799086338e-03 0.0000000000000000e+00  -8.0989506621305196e-01 1.0494965532377373e-03 0.0000000000000000e+00  -2.7143693854181933e-01 -2.1940988640273273e-04 0.0000000000000000e+00  -3.1429827353692691e-01 2.8339585287032289e-03 0.0000000000000000e+00  -9.8216347404077520e-01 -8.5549121318223564e-04 0.0000000000000000e+00  -7.1963563426922272e-01 1.6464561451113718e-03 0.0000000000000000e+00  -8.5433180720246216e-01 2.7544319298027364e-03 0.0000000000000000e+00  -9.1661823290549060e-01 9.3457680807729204e-04 0.0000000000000000e+00  -7.9337766891898287e-01 3.1118393937465960e-03 0.0000000000000000e+00  -6.4002925256241028e-01 2.9478506623518584e-03 0.0000000000000000e+00  -9.2819913186404734e-01 -1.2843171975128742e-03 0.0000000000000000e+00  -9.7563560311279951e-01 -7.5261139666615851e-04 0.0000000000000000e+00  -9.8053171109650994e-01 -1.1959551604864282e-03 0.0000000000000000e+00  -9.5536146861128135e-01 -1.7661046939426717e-03 0.0000000000000000e+00  -8.1024956283051497e-01 3.2720834983233082e-03 0.0000000000000000e+00  -8.6966961498762307e-01 -2.1458313413619257e-03 0.0000000000000000e+00  -8.7123803012473489e-01 -2.8459598668555408e-03 0.0000000000000000e+00  -8.0020259252620485e-01 -3.3226391494861618e-04 0.0000000000000000e+00  -5.2721708768989828e-01 -1.4256958205845771e-03 0.0000000000000000e+00  -5.3217261901768087e-01 -1.0458803798911731e-03 0.0000000000000000e+00  -6.2632035338145953e-01 -3.1076367137709226e-03 0.0000000000000000e+00  -3.1690872761072036e-01 1.9789306962549845e-03 0.0000000000000000e+00  -4.1943232407884856e-01 3.4671854378780786e-03 0.0000000000000000e+00  -9.9117560064387900e-01 2.3673855732486704e-04 0.0000000000000000e+00  -7.1028911224694138e-02 5.2884876354196697e-03 0.0000000000000000e+00  -5.3850473672091184e-02 -1.5445994634039895e-03 0.0000000000000000e+00  -9.9954884694880375e-01 2.0189777517837237e-04 0.0000000000000000e+00  -5.5753709871558055e-01 -4.7926159458915873e-03 0.0000000000000000e+00  -5.5854836506534089e-01 1.1825176625276379e-03 0.0000000000000000e+00  -5.9497832596701827e-01 -4.8647021260255219e-03 0.0000000000000000e+00  -7.2414387164113159e-01 -3.6048753904163733e-03 0.0000000000000000e+00  -9.3188530383796608e-01 -1.1008939457549660e-03 0.0000000000000000e+00  -8.8693442488918151e-01 -1.4019995555730747e-04 0.0000000000000000e+00  -9.9123034841936541e-01 -5.2226303223631976e-04 0.0000000000000000e+00  -9.9197589674795617e-01 5.2149220171893163e-04 0.0000000000000000e+00  -9.6532255331267480e-01 -6.0582058147140572e-04 0.0000000000000000e+00  -9.2420196765662965e-01 -2.1812328009974680e-03 0.0000000000000000e+00  -9.9961264542545092e-01 -3.1692048483744628e-05 0.0000000000000000e+00  -9.9001439333712915e-01 2.2082526587875170e-04 0.0000000000000000e+00  -9.6517285282048515e-01 -1.4319671404937617e-03 0.0000000000000000e+00  -9.9089835275009042e-01 -5.9194920932878481e-04 0.0000000000000000e+00  -7.2990438979039884e-01 2.4178508383785663e-03 0.0000000000000000e+00  -9.2418592749927420e-01 -1.8077536124886384e-03 0.0000000000000000e+00  -5.4017032872276527e-01 5.0721151280332388e-03 0.0000000000000000e+00  -1.9459458197667059e-01 2.5146007114569208e-03 0.0000000000000000e+00  -1.9407143524173506e-01 2.5464428612366058e-03 0.0000000000000000e+00  -5.2334520601240642e-01 -3.2599527830370206e-04 0.0000000000000000e+00  -6.2865513198723122e-01 -1.8233368426067154e-03 0.0000000000000000e+00  -7.2670047587509212e-01 2.6044167095359508e-03 0.0000000000000000e+00  -9.9305604535059055e-01 6.6182811755305382e-04 0.0000000000000000e+00  -9.6801361212401749e-01 -6.0429155306490623e-04 0.0000000000000000e+00  -9.9453118695285847e-01 4.7675678714359515e-04 0.0000000000000000e+00  -6.3992651204121831e-01 -8.8377596387712726e-04 0.0000000000000000e+00  -9.5219719600830455e-01 -5.0720062933978793e-04 0.0000000000000000e+00  -9.4766581506447811e-01 1.1104788965645707e-03 0.0000000000000000e+00  -8.1104639148769342e-01 2.9092326102250210e-03 0.0000000000000000e+00  -7.3362230200273981e-01 -3.9501416990975757e-03 0.0000000000000000e+00  -8.1247597674249494e-01 -5.1351602006133312e-04 0.0000000000000000e+00  -9.2182598483355616e-01 1.8227812512093822e-03 0.0000000000000000e+00  -2.1189540924094519e-01 5.4302850805957870e-03 0.0000000000000000e+00  -2.9327045932318996e-01 -4.2508520258435767e-03 0.0000000000000000e+00  -9.8012908578283198e-01 5.4571129543767860e-04 0.0000000000000000e+00  -9.7887032228474991e-01 1.1757444124952388e-03 0.0000000000000000e+00  -8.8653838960048126e-01 -1.4006466057436828e-03 0.0000000000000000e+00  -9.7689218221171492e-01 5.1327585974861312e-04 0.0000000000000000e+00  -9.9477808580316107e-01 -4.7470364613963478e-04 0.0000000000000000e+00  -4.5045540679449453e-01 3.3896876841039182e-03 0.0000000000000000e+00  -8.5947260465944086e-01 2.1558182749639165e-03 0.0000000000000000e+00  -8.9603679480640508e-01 3.4420683671650965e-03 0.0000000000000000e+00  -7.2550894846182701e-01 -4.0712250981872478e-04 0.0000000000000000e+00  -9.9353690450770094e-01 -3.9561169090385206e-04 0.0000000000000000e+00  -8.7136109456279742e-01 1.4344975405171656e-03 0.0000000000000000e+00  -9.2668620001278035e-01 1.0378023414265858e-03 0.0000000000000000e+00  -8.8133931738564175e-01 1.0564593806643569e-03 0.0000000000000000e+00  -9.3092995495526887e-01 1.3528134489989019e-03 0.0000000000000000e+00  -8.5051965149733610e-01 -2.6204350030458734e-03 0.0000000000000000e+00  -9.9913986999268001e-01 1.4636731197703590e-04 0.0000000000000000e+00  -9.9471079619629310e-01 -2.5899786081640119e-04 0.0000000000000000e+00  -7.0459213739906412e-01 1.6062305478538041e-03 0.0000000000000000e+00  -4.6922305903234907e-01 4.8351492822709674e-03 0.0000000000000000e+00  -8.7700687731840965e-01 -6.8665728422129257e-04 0.0000000000000000e+00  -8.0178898196825399e-01 2.6414035665868474e-03 0.0000000000000000e+00  -9.8782973561890142e-01 -7.0437125350641949e-04 0.0000000000000000e+00  -9.6687983297721680e-01 1.0266988781651998e-03 0.0000000000000000e+00  -9.2235976394254837e-01 -2.5064118073577779e-03 0.0000000000000000e+00  -9.7886982364865016e-01 -6.7268269416026483e-04 0.0000000000000000e+00  -9.7328091996396549e-01 9.8320010760523380e-04 0.0000000000000000e+00  -4.6027376536489795e-01 2.6550323933512143e-03 0.0000000000000000e+00  -7.6350256205082279e-01 1.6107562355190397e-03 0.0000000000000000e+00  -8.0622071150621899e-01 3.4395571792640856e-03 0.0000000000000000e+00  -9.9674066392182981e-01 4.1214227859376340e-04 0.0000000000000000e+00  -9.6610476240790866e-01 8.9149685032093029e-04 0.0000000000000000e+00  -9.6667234039860883e-01 -1.1146378974610793e-03 0.0000000000000000e+00  -7.1186017864113416e-01 1.7150943226282023e-03 0.0000000000000000e+00  -8.8554367157412595e-01 1.2382730470485714e-03 0.0000000000000000e+00  -7.9180792812413447e-01 -3.6624985513601382e-03 0.0000000000000000e+00  -8.2107346683809346e-01 -2.6390958903189099e-03 0.0000000000000000e+00  -9.8176076642255961e-01 -6.6657544996473472e-04 0.0000000000000000e+00  -7.5145387521777007e-01 1.5117020293295910e-03 0.0000000000000000e+00  -9.6242177190441613e-01 1.4439234379937937e-03 0.0000000000000000e+00  -9.8932246538688173e-01 1.7189554603080914e-04 0.0000000000000000e+00  -9.9550346785858856e-01 1.3206287620931567e-04 0.0000000000000000e+00  -8.6027180487046961e-01 1.9991893187577964e-03 0.0000000000000000e+00  -5.0555858413452792e-01 -7.5209092031275349e-04 0.0000000000000000e+00  -7.6588202620577861e-01 -5.6968682354885392e-04 0.0000000000000000e+00  -8.6251472794535322e-01 2.9066772609713243e-03 0.0000000000000000e+00  -3.1610566325605716e-01 -1.0530712877958592e-03 0.0000000000000000e+00  -1.9346941005723822e-01 -4.2513679503684704e-03 0.0000000000000000e+00  -8.4379665646127799e-01 -2.1486774098146699e-03 0.0000000000000000e+00  -9.3663929694914416e-01 8.6662821745936425e-04 0.0000000000000000e+00  -8.8722471555302418e-01 -6.6902556778442035e-04 0.0000000000000000e+00  -9.0885957976614817e-01 -8.6916250934965245e-04 0.0000000000000000e+00  -4.0550168135964093e-01 3.8991626273103177e-03 0.0000000000000000e+00  -9.9974536248457180e-01 1.6480405165136824e-04 0.0000000000000000e+00  -6.4848469600596192e-01 1.6158819433747529e-03 0.0000000000000000e+00  -5.3308471273917890e-01 -3.1359061714053699e-03 0.0000000000000000e+00  -6.0306614200584696e-01 -2.6385318831002036e-03 0.0000000000000000e+00  -6.1539182652516888e-01 -2.3629122660875357e-03 0.0000000000000000e+00  -6.5506543401650752e-01 -4.3534287078689227e-03 0.0000000000000000e+00  -8.6809176961926293e-01 1.4092088730454089e-03 0.0000000000000000e+00  -8.8339441658963569e-01 -2.3131170353208885e-03 0.0000000000000000e+00  -9.3240001707434883e-01 -8.4062141700115556e-04 0.0000000000000000e+00  -9.7012348780022872e-01 -6.5356106060851515e-04 0.0000000000000000e+00  -2.5520018251150511e-01 1.5454247432294677e-03 0.0000000000000000e+00  -3.4936988522072171e-01 1.8900107141399014e-03 0.0000000000000000e+00  -3.1263117631722337e-01 -1.7205746077864625e-03 0.0000000000000000e+00  -9.5697533452565786e-01 8.1801809276454973e-04 0.0000000000000000e+00  -9.5920558416603596e-01 -2.2656682414184254e-04 0.0000000000000000e+00  -7.9686841175441891e-01 -3.0817254546202377e-03 0.0000000000000000e+00  -5.4115157