<?xml version="1.0"?>
<VTKFile type="UnstructuredGrid"  version="0.1"  >
<UnstructuredGrid>
<Piece  NumberOfPoints="1385" NumberOfCells="2640">
<Points>
<DataArray  type="Float64"  NumberOfComponents="3"  format="ascii">0 0 0  1 0 0  1 1 0  0 1 0  0.5 0 0  1 0.5 0  0.5 1 0  0 0.5 0  0.5 0.5 0  0 0.25 0  0.25 0 0  0.25 1 0  0 0.75 0  1 0.25 0  0.75 0 0  1 0.75 0  0.75 1 0  0.7083333333333333 0.2916666666666667 0  0.2916666666666666 0.7083333333333334 0  0.375 0.25 0  0.75 0.625 0  0.2569444444444444 0.4652777777777778 0  0.5366379310344828 0.7535919540229885 0  0.1875 0.1875 0  0.8125 0.8125 0  0.869047619047619 0.375 0  0.1450441919191919 0.6052714646464646 0  0.375 0.8690476190476191 0  0.5526960784313725 0.1825980392156862 0  0.8385416666666666 0.1614583333333334 0  0.1614583333333333 0.8385416666666667 0  0.6736111111111112 0.4652777777777778 0  0.1367521367521368 0.3477564102564102 0  0.6570970491253563 0.8648656830417855 0  0.5102479397556124 0.3386260301221938 0  0.3654513888888889 0.5737847222222222 0  0.6929750044954185 0.1362784921584263 0  0.388576102743835 0.411911725237599 0  0.6091269841269842 0.5942460317460317 0  0.875 0.6875 0  0.427278890279516 0.119889445139758 0  0.8544456845238095 0.5213913690476191 0  0.125 0 0  0 0.125 0  1 0.875 0  0.875 1 0  0.1280008648150532 0.4769292340226777 0  0.2695382451711197 0.3321750950221553 0  0.7031567235715964 0.7447810921428012 0  0.625 0 0  0.375 0 0  0.125 1 0  0.875 0 0  0 0.375 0  0 0.625 0  1 0.375 0  0.375 1 0  1 0.125 0  0 0.875 0  0.625 1 0  1 0.625 0  0.2979288363930608 0.1201429454643536 0  0.410919540229885 0.7484605911330049 0  0.5325041980395562 0.878905151526474 0  0.4831670727569156 0.6331060043826487 0  0.1735997378973042 0.7204747378973043 0  0.2534919507575758 0.5772372159090909 0  0.2633928571428572 0.8876488095238095 0  0.8199404761904761 0.2730654761904762 0  0.75830270586982 0.3919383189517417 0  0.5750282248382511 0.4237522353023667 0  0.6008360210023379 0.2794828358598495 0  0.08163442644334186 0.6821295860397322 0  0.08333333333333333 0.1875 0  0.2028380815996574 0.08844602719988583 0  0.2766521142611967 0.2325436572164097 0  0.90625 0.78125 0  0.890625 0.890625 0  0.7545696325008384 0.8973565441669461 0  0.5625 0.08086590340834317 0  0.09077380952380953 0.09077380952380952 0  0.4610923478694773 0.209034015149656 0  0.7542527598351648 0.5248380520595106 0  0.6459235536037465 0.3619913988405765 0  0.7560381768882634 0.20506142233852 0  0.07073252688172042 0.8125 0  0.0924753097241701 0.9078102849914793 0  0.9292674731182795 0.1875 0  0.9075246902758297 0.09218971500852073 0  0.8125 0.07073252688172045 0  0.2400955776842301 0.7869705776842302 0  0.9121050213379069 0.2781978201831695 0  0.7916878157143976 0.7239689078571988 0  0.9345238095238094 0.4375 0  0.4375 0.9345238095238095 0  0.3725616989755203 0.6651895248862173 0  0.06536271996350887 0.5625 0  0.9348362560379583 0.5625 0  0.456646798987055 0.8277247094351965 0  0.1875 0.9355758238725954 0  0.6169761231634859 0.6939779188977889 0  0.6226854751147515 0.7827911461419014 0  0.3305695598137626 0.7901697871282585 0  0.5865305325818898 0.5101085479043448 0  0.6622701297028378 0.2177663989757395 0  0.1354166666666667 0.2591702279202279 0  0 0.3125 0  0.2094429575680048 0.3936361846162499 0  0.836666296419157 0.607917407161686 0  0.6875 1 0  0.214261555450504 0.6492551722020035 0  0 0.4375 0  0.07731537126068377 0.40625 0  0.3427725432967068 0.4879566233699599 0  0.3550792513951871 0.3331953632609953 0  0.4462473953896857 0.2887834789342508 0  0.4747801464819794 0.417386052030127 0  0.8229836475148948 0.4443292349237342 0  0.7322605135514757 0.8199240278289671 0  0.6756431877205955 0.5468989748126787 0  0.1968419507215863 0.5194573482612496 0  0.3285590277777778 0.9345238095238095 0  0.8125 1 0  0.4198917601920009 0.5134893045331258 0  0.5232405503206691 0.2595791787880157 0  1 0.9375 0  0.1987510870015086 0.3025185951894431 0  0.5625 1 0  0.6005390654136388 0.9228110509230952 0  0.6411254848194414 0.07704872765442942 0  0.3357233162523242 0.1855113224530532 0  0.6730653396610877 0.6393887462324165 0  0.310966987234063 0.6240019765311626 0  0.7368737836204349 0.07457755202327881 0  0.6192316414418171 0.1485238406378594 0  0.5432429670607106 0.678552703844006 0  0.4754371679695679 0.7103946803120881 0  0.07501324890749672 0.3043839897335739 0  0.5358146975860403 0.5688321463205916 0  0.3115271739500156 0.3982137365971444 0  0.3625191397122174 0.0767854603650549 0  0.5024029442563831 0.1264128223758444 0  0.4375 0 0  0.4699946908887376 0.06379961173775725 0  0.9375 0.71875 0  0.9272105898044465 0.635671179608893 0  0.9375 1 0  0.6690971819568612 0.9331530898202766 0  0.1073454944778885 0.7499206387638554 0  0.8699082999280406 0.2232403652524313 0  0.5773118091863964 0.3548027349159383 0  0.1354166666666667 0.1428571428571428 0  0.3125 0 0  0.8241684193077341 0.9257452995055244 0  0.4352314948354036 0.3586940847489378 0  0.4351301473778832 0.5819726043539077 0  0.8073232928518163 0.3419398170341962 0  0.7775949246947366 0.1298519409204575 0  0.6875 0 0  0.7413513991851041 0.457933324954483 0  0.939453125 0.841796875 0  0.5630355154606987 0.8171875156478349 0  0.9345238095238095 0.3461466592368577 0  0.9375 0 0  1 0.0625 0  0.0625 1 0  0 0.9375 0  0.06552178593177167 0.4969053669623468 0  0.1424866619031703 0.4130277709291224 0  0.1275287182444726 0.5422946908002588 0  0.2637686595586339 0.06413888464529549 0  0.2524263535491086 0.1697437503243817 0  0.7367218397988525 0.6888573970660841 0  0.0625 0 0  0 0.0625 0  0.8463594539285995 0.7578283617857982 0  0.3128751192101563 0.2851997374369947 0  0.4015281788351144 0.1806421385113692 0  0.1910251795116588 0.4553332197174453 0  0.287797471442006 0.5222621440543902 0  0.3962628745986055 0.8097380085535307 0  0.3505895299554843 0.7304878890838692 0  0.5019151500495276 0.9356042615328103 0  0.9374389419410134 0.4999931039076005 0  0.3125 1 0  0.1875 1 0  1 0.5625 0  0.4375 1 0  1 0.3125 0  1 0.4375 0  0.8125 0 0  1 0.1875 0  0.5625 0 0  0.1875 0 0  0 0.1875 0  0 0.5625 0  0 0.6875 0  0 0.8125 0  1 0.6875 0  1 0.8125 0  0.8021696218581627 0.6612893947866073 0  0.06154922295426143 0.6239401126946708 0  0.9359375 0.9359375 0  0.4666158024849896 0.7691515918155014 0  0.2318201265217025 0.7064974250277525 0  0.1565954253579966 0.6635489312486841 0  0.1598132503680848 0.7787147500325552 0  0.3146529991605639 0.8510876378205265 0  0.1461873209418733 0.05982804528877814 0  0.06109554988524315 0.2446551776247686 0  0.8054950308560754 0.5564226538848541 0  0.470541749491976 0.8853316336952531 0  0.6948472567465137 0.4042308563372457 0  0.8802828472348889 0.4658893256343853 0  0.6788075634946739 0.7974194205806069 0  0.2155048659603867 0.2428201584940968 0  0.8131223143423806 0.2132171049028394 0  0.4330798005432235 0.6671274900735726 0  0.6015279126162613 0.2187368078743274 0  0.8061636571464289 0.8703766630361714 0  0.7008230445061776 0.3478568388444072 0  0.8638466246958771 0.3147095987735538 0  0.204801534004265 0.8789209409594009 0  0.2449006736431132 0.9424182882803838 0  0.7611268409371427 0.2643056884799992 0  0.7552800864046191 0.7678006649959446 0  0.5983639638906616 0.864113435029236 0  0.1956559506814437 0.577281203577426 0  0.3527670268164207 0.1320469097565204 0  0.7530364577483248 0.3262386077083089 0  0.4535919187979363 0.4690107087451527 0  0.8824869791666666 0.8336588541666666 0  0.8814453125 0.9451171875 0  0.5582987942628019 0.622421666543858 0  0.6817532446064828 0.6939001801354731 0  0.3830295138888889 0.9450968952922078 0  0.4140603937012541 0.05211333372716105 0  0.5535864501303013 0.3060591985391672 0  0.6560130086346878 0.2729726562211558 0  0.890203140221684 0.5948314305427268 0  0.7043857725999024 0.593980890020804 0  0.5105843922695152 0.8016828014338627 0  0.05365910753708378 0.7315110031682004 0  0.616904573672261 0.4621186633436136 0  0.5338511646455415 0.387875898899613 0  0.5231769258947843 0.4477682463140762 0  0.650302973237622 0.7370722302085519 0  0.3927483139621257 0.4662414504529014 0  0.8034595960585199 0.4972538342758211 0  0.7738337841682438 0.9496376207663251 0  0.7193737507158268 0.954685447650112 0  0.482525916480686 0.5528257169991676 0  0.2533501157346781 0.2809495420003238 0  0.3118487924482243 0.5702930126570319 0  0.6257598847669529 0.4104163315430518 0  0.1354166666666667 0.1955605158730158 0  0.04166666666666666 0.15625 0  0.3956448985530264 0.6174149462065157 0  0.8102897701818546 0.3938784238208349 0  0.2641154190013625 0.8344469561943118 0  0.642852220770013 0.5068794586563659 0  0.05271458179508221 0.355846947336007 0  0.7021551360070266 0.8921457280225779 0  0.5692125776683765 0.1328512638850284 0  0.5206162811937602 0.04865158770992991 0  0.6001838442201555 0.04540556991297563 0  0.2597716608242787 0.4118346398477178 0  0.4040584599473195 0.3179589136784675 0  0.1480337679295207 0.8941560631483065 0  0.1344356707112281 0.9466251177415842 0  0.7114696411829317 0.4983917389078826 0  0.7585704698442475 0.5751926345944629 0  0.2189131956390871 0.04022068508159698 0  0.2476935455192043 0.1123642267635843 0  0.185995005654517 0.1365524537205238 0  0.6223414373308711 0.643380839165121 0  0.5732602596637543 0.7190051747306219 0  0.268358222364537 0.6586246524467934 0  0.3265879848129173 0.2369791782191225 0  0.1267095595787346 0.7034787238999181 0  0.1115202922226038 0.6421997933884982 0  0.3128688392940203 0.07260997451790079 0  0.550724900485678 0.9253360991633187 0  0.7142608810459105 0.2384904702214873 0  0.7045869185243887 0.1871826897887429 0  0.890625 0.734375 0  0.953125 0.765625 0  0.2111812642821677 0.8286209446459138 0  0.9590293078204457 0.09375 0  0.953431269039847 0.1435719386408004 0  0.04097069217955424 0.90625 0  0.04656873096015299 0.8564280613591996 0  0.1078743037981226 0.8541621766048062 0  0.8921256962018773 0.1458378233951939 0  0.8521576979194619 0.1084496634207678 0  0.8655663982740958 0.05464346096571447 0  0.04005659640905543 0.09375 0  0.1001448316533417 0.04246776244228261 
[...]
<PointData  Vectors="f_8394-0-1"> 
<DataArray  type="Float64"  Name="f_8394-0-1"  NumberOfComponents="3" format="ascii">4.2166672399756577e-03 -1.7420577202788178e-02 0.0000000000000000e+00  1.4863763138361717e-03 -8.4288876845563565e-01 0.0000000000000000e+00  2.4116094743703328e-03 -9.1269714671213920e-01 0.0000000000000000e+00  8.8554263117960816e-06 -8.4521286991133304e-01 0.0000000000000000e+00  3.0526400886349281e-03 -4.8618706372691878e-01 0.0000000000000000e+00  -1.3563945967698388e-04 -9.9714625598836426e-01 0.0000000000000000e+00  1.0249740381718109e-04 -9.9756589163926779e-01 0.0000000000000000e+00  5.2850707663357754e-03 -4.8434335203367418e-01 0.0000000000000000e+00  -2.1280056937359459e-03 -8.3695513283407119e-01 0.0000000000000000e+00  1.6636812115504141e-03 -2.5576223854223518e-01 0.0000000000000000e+00  4.0882269181593545e-03 -2.5525321174688848e-01 0.0000000000000000e+00  -9.8171427836196701e-04 -9.4589046745879102e-01 0.0000000000000000e+00  1.0334603861602027e-03 -6.8632227358198572e-01 0.0000000000000000e+00  -1.7676519892929621e-03 -9.4675805692217263e-01 0.0000000000000000e+00  -1.6288896414996534e-03 -6.7523331579247570e-01 0.0000000000000000e+00  1.0562008566116221e-03 -9.8537273055564467e-01 0.0000000000000000e+00  6.3851064833245902e-04 -9.8343058994320742e-01 0.0000000000000000e+00  1.2916229923167766e-03 -8.4684716130636628e-01 0.0000000000000000e+00  3.3791055153338245e-03 -8.4577237675914052e-01 0.0000000000000000e+00  -2.2263875352171725e-03 -5.8051688540039326e-01 0.0000000000000000e+00  -7.7250493003166998e-04 -9.7996747442240428e-01 0.0000000000000000e+00  1.5152298344922599e-06 -6.5535680645935368e-01 0.0000000000000000e+00  1.0083839627301194e-03 -9.6379611250514019e-01 0.0000000000000000e+00  -4.1107238811751122e-03 -3.5823437508985939e-01 0.0000000000000000e+00  3.2076993093105299e-04 -9.9856273421112907e-01 0.0000000000000000e+00  8.5537973800210720e-04 -9.5121733829919142e-01 0.0000000000000000e+00  -1.5195975007465112e-03 -6.7514928041831346e-01 0.0000000000000000e+00  8.2692591900279666e-04 -9.4999740419448209e-01 0.0000000000000000e+00  3.0582340079347847e-03 -6.6937362889996310e-01 0.0000000000000000e+00  -1.7589446182199667e-03 -8.4733044981241423e-01 0.0000000000000000e+00  -2.2852587927623680e-03 -8.3778470269602590e-01 0.0000000000000000e+00  4.1207980184053417e-04 -9.1280518177515368e-01 0.0000000000000000e+00  -1.3638039125360713e-03 -4.7057761170258883e-01 0.0000000000000000e+00  1.9758213276588332e-04 -9.9894986741478853e-01 0.0000000000000000e+00  -4.3649057805536240e-03 -7.4636040214688726e-01 0.0000000000000000e+00  1.3191242211448850e-03 -8.1286183714609217e-01 0.0000000000000000e+00  -2.2463683388607159e-03 -7.3261452802082838e-01 0.0000000000000000e+00  -1.8171196304384019e-03 -7.1425193294032285e-01 0.0000000000000000e+00  -8.2461593533757205e-04 -9.3318549571447551e-01 0.0000000000000000e+00  -6.6945365036152893e-05 -9.9995615564799634e-01 0.0000000000000000e+00  4.4823355408776661e-03 -5.2910924003160742e-01 0.0000000000000000e+00  3.4761564516627708e-04 -9.8293317167061600e-01 0.0000000000000000e+00  4.5827229061115027e-03 -1.2724995709768924e-01 0.0000000000000000e+00  -1.3577404523182996e-04 -1.3071141123765229e-01 0.0000000000000000e+00  1.9161394411287835e-03 -9.5633228024047789e-01 0.0000000000000000e+00  1.1039188815260559e-03 -9.5506582212984203e-01 0.0000000000000000e+00  3.1425233223852933e-03 -5.7442420199732902e-01 0.0000000000000000e+00  -4.2387356708420421e-03 -5.5907661000426834e-01 0.0000000000000000e+00  -3.8991858120820955e-04 -9.9120220683994131e-01 0.0000000000000000e+00  1.8478063641945153e-03 -5.9147703543828001e-01 0.0000000000000000e+00  5.9428491664376415e-03 -3.6905344567746018e-01 0.0000000000000000e+00  -2.2960295338866343e-03 -9.0025516373243664e-01 0.0000000000000000e+00  3.4087091717014129e-03 -7.7089160622983288e-01 0.0000000000000000e+00  5.7697317532185988e-03 -3.7646846274800194e-01 0.0000000000000000e+00  1.6579821752473669e-03 -5.9040409865430965e-01 0.0000000000000000e+00  -1.2624642460704605e-03 -9.7940603394819625e-01 0.0000000000000000e+00  1.5646071721540922e-04 -9.8277339757785354e-01 0.0000000000000000e+00  -2.5568037440493185e-03 -9.0005110954451417e-01 0.0000000000000000e+00  2.8856631472852223e-03 -7.7205599344202791e-01 0.0000000000000000e+00  1.0301312877436519e-04 -9.9840186241292872e-01 0.0000000000000000e+00  2.6630933339910623e-04 -9.9877893775682480e-01 0.0000000000000000e+00  4.3125459332982174e-03 -4.1659699521148502e-01 0.0000000000000000e+00  -1.0096266102719298e-03 -9.1470678036741448e-01 0.0000000000000000e+00  -1.0160884723264263e-03 -9.8665071794096282e-01 0.0000000000000000e+00  -2.1123993720203460e-03 -8.9573148554313597e-01 0.0000000000000000e+00  2.2095430103215435e-03 -7.8427683909843393e-01 0.0000000000000000e+00  5.1519648872184187e-03 -7.4103868901315451e-01 0.0000000000000000e+00  -2.0457602320376189e-03 -9.0836182862192449e-01 0.0000000000000000e+00  -8.0288251382162890e-04 -8.8348495002235916e-01 0.0000000000000000e+00  1.1662402621211987e-03 -9.1656750974773760e-01 0.0000000000000000e+00  2.5854749149187839e-03 -8.4578609303137620e-01 0.0000000000000000e+00  7.2247263333719003e-04 -7.7741097693675343e-01 0.0000000000000000e+00  -3.7126718273365333e-03 -6.8599892372165017e-01 0.0000000000000000e+00  -4.1870406692747220e-03 -2.6628860180886027e-01 0.0000000000000000e+00  -3.9348150249879227e-03 -2.7883584673677630e-01 0.0000000000000000e+00  3.0790483579848232e-03 -4.9240589132420337e-01 0.0000000000000000e+00  7.8402708129904353e-04 -9.9205226672527591e-01 0.0000000000000000e+00  4.4681335538387934e-04 -9.7934843048761377e-01 0.0000000000000000e+00  2.5064250226963791e-04 -9.9618534821138627e-01 0.0000000000000000e+00  -2.5573230042233511e-03 -6.0130557835149812e-01 0.0000000000000000e+00  4.3213540571050355e-03 -1.7461190618984634e-01 0.0000000000000000e+00  -8.6434223452899750e-04 -6.1501404175420371e-01 0.0000000000000000e+00  5.8127888965706087e-04 -9.6037330811834232e-01 0.0000000000000000e+00  -2.5849611448037768e-03 -8.4799386758767947e-01 0.0000000000000000e+00  -2.3413311911107404e-03 -8.1542163191156602e-01 0.0000000000000000e+00  7.6479761097528187e-04 -7.7961804077415275e-01 0.0000000000000000e+00  -1.2539023253403392e-03 -8.3645307707409966e-01 0.0000000000000000e+00  1.4099974405502869e-03 -9.0390684060277027e-01 0.0000000000000000e+00  -2.4218834753784446e-03 -8.4243003513624826e-01 0.0000000000000000e+00  3.7813005980021352e-03 -7.7591598850097743e-01 0.0000000000000000e+00  -1.8118531504127955e-03 -8.5134802529841824e-01 0.0000000000000000e+00  -1.2290959150459413e-03 -9.2714302018679140e-01 0.0000000000000000e+00  2.0725064487070455e-04 -9.9909357291289846e-01 0.0000000000000000e+00  6.1059204248431476e-04 -9.8237099601491018e-01 0.0000000000000000e+00  3.5706699310444900e-04 -9.8159503651370494e-01 0.0000000000000000e+00  -2.3735112863233487e-03 -8.5728796225022141e-01 0.0000000000000000e+00  -2.5884130150413548e-03 -5.8093192649686209e-01 0.0000000000000000e+00  1.7583609649340914e-04 -9.9819919243801114e-01 0.0000000000000000e+00  1.5787186875587667e-04 -9.5794404480317119e-01 0.0000000000000000e+00  -1.9429390428559179e-03 -8.9823179957319144e-01 0.0000000000000000e+00  -1.5021372848472159e-03 -9.6432588485601411e-01 0.0000000000000000e+00  -5.0387670666079964e-04 -9.8484444209831812e-01 0.0000000000000000e+00  2.0588197066027103e-03 -9.0300772887598058e-01 0.0000000000000000e+00  7.4548749277714155e-04 -8.9380142459381828e-01 0.0000000000000000e+00  -3.5930350597875860e-03 -7.6860276692562790e-01 0.0000000000000000e+00  3.6428389301078057e-03 -3.9057561041166255e-01 0.0000000000000000e+00  5.7448767729557648e-03 -3.1347652793134129e-01 0.0000000000000000e+00  4.2683124800981243e-03 -5.7471427632062222e-01 0.0000000000000000e+00  -1.6160978710041962e-04 -9.9261275751061384e-01 0.0000000000000000e+00  6.2318344537409809e-04 -9.9297296974183280e-01 0.0000000000000000e+00  7.2244986695974012e-05 -7.5521490280365200e-01 0.0000000000000000e+00  -2.6317635678120479e-03 -4.2684553007461756e-01 0.0000000000000000e+00  -4.1021850812733573e-04 -4.7294347286238869e-01 0.0000000000000000e+00  -1.5373849106868620e-03 -7.3143248045215259e-01 0.0000000000000000e+00  2.6746458172508536e-03 -6.4198318657460596e-01 0.0000000000000000e+00  1.9247866243495004e-03 -6.7964930740574836e-01 0.0000000000000000e+00  1.0161736315842940e-03 -7.8521727763504712e-01 0.0000000000000000e+00  -5.0616502342652747e-04 -9.5134628733828908e-01 0.0000000000000000e+00  1.9190180982620042e-06 -9.9983375549637388e-01 0.0000000000000000e+00  1.2640161650464554e-03 -9.4284122731517495e-01 0.0000000000000000e+00  3.6988895950636480e-03 -6.6273565387364397e-01 0.0000000000000000e+00  -2.0357783594462386e-03 -9.4979609430995504e-01 0.0000000000000000e+00  9.4340550511171073e-04 -9.7057017373669741e-01 0.0000000000000000e+00  2.3964939758855906e-03 -8.0429462328243839e-01 0.0000000000000000e+00  -2.6702970718210928e-03 -7.0081093029578734e-01 0.0000000000000000e+00  2.2351340362956051e-03 -9.3620823540346243e-01 0.0000000000000000e+00  3.4836736317788997e-03 -4.8841791485653008e-01 0.0000000000000000e+00  -8.2791458141376209e-05 -9.9948257591630085e-01 0.0000000000000000e+00  2.3847223752607172e-05 -9.9841052350347681e-01 0.0000000000000000e+00  1.2788295495853863e-03 -6.6444206448142074e-01 0.0000000000000000e+00  -3.7043983899927302e-03 -4.8722041335968336e-01 0.0000000000000000e+00  -1.0666577329339066e-03 -9.6467786220906471e-01 0.0000000000000000e+00  -1.5014690640317019e-03 -7.9826537565668265e-01 0.0000000000000000e+00  4.2123298747375748e-03 -7.3149640655583781e-01 0.0000000000000000e+00  2.3266990093140372e-03 -7.0161299952151446e-01 0.0000000000000000e+00  1.1835884204626224e-03 -9.4313932703322267e-01 0.0000000000000000e+00  1.9286553570421472e-03 -9.3066103490942476e-01 0.0000000000000000e+00  3.2628524180068896e-03 -3.7878646299096869e-01 0.0000000000000000e+00  9.0158506990558208e-04 -8.8988303865733720e-01 0.0000000000000000e+00  2.6918163171630316e-03 -6.5834570785765645e-01 0.0000000000000000e+00  -4.3788933819118858e-03 -4.2113057012408228e-01 0.0000000000000000e+00  2.7007361388603074e-03 -5.9491079179233075e-01 0.0000000000000000e+00  4.4005003938716591e-03 -4.2800801474132311e-01 0.0000000000000000e+00  -4.1395691255062816e-03 -5.0163815645633913e-01 0.0000000000000000e+00  2.0304071070420537e-04 -9.9708426335856459e-01 0.0000000000000000e+00  -8.4157001125628739e-05 -1.0000309309001090e+00 0.0000000000000000e+00  -3.1745656145645840e-04 -9.2857313996054103e-01 0.0000000000000000e+00  -2.1662635118702145e-04 -9.9882033272461523e-01 0.0000000000000000e+00  -3.5253889755502144e-03 -7.4918681336096082e-01 0.0000000000000000e+00  -1.5481791082716523e-03 -8.8360827320837254e-01 0.0000000000000000e+00  8.9021348565165859e-04 -8.0897447867028038e-01 0.0000000000000000e+00  2.7585323668802286e-04 -2.8268285014698735e-01 0.0000000000000000e+00  3.0636337796358382e-03 -3.1412175984769264e-01 0.0000000000000000e+00  -1.0419730963316665e-03 -9.8474948727831679e-01 0.0000000000000000e+00  2.1950547257991726e-03 -7.1930095703454100e-01 0.0000000000000000e+00  3.1144154063442731e-03 -8.5297224948799522e-01 0.0000000000000000e+00  7.5685933586823462e-04 -9.1722629165230152e-01 0.0000000000000000e+00  2.9650829586618521e-03 -7.9158414805140775e-01 0.0000000000000000e+00  2.4434810589313571e-03 -6.4130254075663762e-01 0.0000000000000000e+00  -7.1907720808583181e-04 -9.2881376223323120e-01 0.0000000000000000e+00  -7.6158435114520584e-04 -9.7534162328683904e-01 0.0000000000000000e+00  -1.1899254268386006e-03 -9.8074249084181464e-01 0.0000000000000000e+00  -1.5354544076089938e-03 -9.5710935590634583e-01 0.0000000000000000e+00  3.2638248865004549e-03 -8.0964711807340306e-01 0.0000000000000000e+00  -2.1181876845851599e-03 -8.7020882136162814e-01 0.0000000000000000e+00  -2.7279016765157649e-03 -8.7191090863204401e-01 0.0000000000000000e+00  3.5815060050387753e-04 -8.0945879166413437e-01 0.0000000000000000e+00  -2.1633976127211074e-03 -5.2616830809095028e-01 0.0000000000000000e+00  -6.7102500622873151e-04 -5.2045564816932666e-01 0.0000000000000000e+00  -2.3550829985844457e-03 -6.1142633030873406e-01 0.0000000000000000e+00  2.5027190288176571e-03 -3.3173096604440555e-01 0.0000000000000000e+00  3.8838491076871873e-03 -4.1982440338230154e-01 0.0000000000000000e+00  1.3812211550712217e-04 -9.9137216532830019e-01 0.0000000000000000e+00  4.8777124312630420e-03 -6.6744681311863396e-02 0.0000000000000000e+00  -3.2677901649110614e-04 -6.7527872930178048e-02 0.0000000000000000e+00  1.3309058157828790e-04 -9.9964401992030505e-01 0.0000000000000000e+00  -5.2832182596833088e-03 -5.5676956749638329e-01 0.0000000000000000e+00  1.1775167175075707e-03 -5.5939371777007529e-01 0.0000000000000000e+00  -4.7048369410337687e-03 -5.9828451068161947e-01 0.0000000000000000e+00  -3.1020462514137481e-03 -7.1920486327546984e-01 0.0000000000000000e+00  -1.6109937833731769e-03 -9.3042385444674447e-01 0.0000000000000000e+00  2.7861032022546972e-04 -8.8739126435666571e-01 0.0000000000000000e+00  -6.0654503453450026e-04 -9.8976700420049768e-01 0.0000000000000000e+00  5.3539346109710700e-04 -9.9242900757130326e-01 0.0000000000000000e+00  -5.9461429535123678e-04 -9.6455437111610942e-01 0.0000000000000000e+00  -2.0791386247212273e-03 -9.2483717546444355e-01 0.0000000000000000e+00  -1.9401001138140319e-04 -1.0000751188664918e+00 0.0000000000000000e+00  1.7822038863093970e-04 -9.9233468329175967e-01 0.0000000000000000e+00  -1.4787409507578397e-03 -9.6531429890502551e-01 0.0000000000000000e+00  -5.6452593209066482e-04 -9.9003026211262801e-01 0.0000000000000000e+00  2.2873293518203310e-03 -7.3167904723169375e-01 0.0000000000000000e+00  -1.8838310347278897e-03 -9.2476561706829497e-01 0.0000000000000000e+00  5.2015090014075060e-03 -5.3724047340099412e-01 0.0000000000000000e+00  2.9204264996466056e-03 -1.9459060082111132e-01 0.0000000000000000e+00  2.4296278306341285e-03 -1.9341375328498095e-01 0.0000000000000000e+00  -2.2620965893639807e-04 -5.4258691613591525e-01 0.0000000000000000e+00  -1.6507952231005494e-03 -6.3500752067612221e-01 0.0000000000000000e+00  2.5343020409450689e-03 -7.3325674981191646e-01 0.0000000000000000e+00  6.4392231544652123e-04 -9.9368314904269661e-01 0.0000000000000000e+00  -4.9767791219752658e-04 -9.7249369645175632e-01 0.0000000000000000e+00  4.2208745256067104e-04 -9.9535110669712545e-01 0.0000000000000000e+00  -3.0150445237650536e-04 -6.2317342428635669e-01 0.0000000000000000e+00  -8.9829186552363438e-04 -9.5145576527245135e-01 0.0000000000000000e+00  1.0753955729763121e-03 -9.4780233410000125e-01 0.0000000000000000e+00  3.6536223383242250e-03 -8.0994866452675773e-01 0.0000000000000000e+00  -3.0261894560945635e-03 -7.2424224530173775e-01 0.0000000000000000e+00  -5.2574176206765522e-04 -8.0311070719613509e-01 0.0000000000000000e+00  1.9081148784749757e-03 -9.2080925002765923e-01 0.0000000000000000e+00  4.4614036584170666e-03 -2.1175065988820330e-01 0.0000000000000000e+00  -5.2767002966403534e-03 -2.9739502328750278e-01 0.0000000000000000e+00  5.0684487270097334e-04 -9.8023147898553153e-01 0.0000000000000000e+00  1.2227931661387137e-03 -9.7711966679358231e-01 0.0000000000000000e+00  -9.7564741844058389e-04 -8.9366098150510775e-01 0.0000000000000000e+00  5.7709719155241146e-04 -9.7743013964943581e-01 0.0000000000000000e+00  -3.2860016805180692e-04 -9.9488645135752551e-01 0.0000000000000000e+00  2.9860746322535880e-03 -4.5065776083849723e-01 0.0000000000000000e+00  2.6034990314274115e-03 -8.5758044774124265e-01 0.0000000000000000e+00  3.8670501220519071e-03 -8.9206062024434085e-01 0.0000000000000000e+00  -4.4084494782801326e-04 -7.3819468846734770e-01 0.0000000000000000e+00  -5.0097666411585973e-04 -9.9333170997544906e-01 0.0000000000000000e+00  1.1229505770475670e-03 -8.7231447020568420e-01 0.0000000000000000e+00  1.4283588609445581e-03 -9.2749361449476220e-01 0.0000000000000000e+00  1.2697292888947942e-03 -8.8820578665568684e-01 0.0000000000000000e+00  1.0861417016604369e-03 -9.2965622455534813e-01 0.0000000000000000e+00  -2.6431540842383472e-03 -8.5218141969614214e-01 0.0000000000000000e+00  2.5817887490997560e-04 -9.9912043337414647e-01 0.0000000000000000e+00  -3.2044620920013145e-04 -9.9305848938673580e-01 0.0000000000000000e+00  1.4235668276524893e-03 -6.9615073388304505e-01 0.0000000000000000e+00  3.6811574561635418e-03 -4.7319780635962078e-01 0.0000000000000000e+00  2.4363142599814758e-04 -8.7678155989207740e-01 0.0000000000000000e+00  2.2524667050981551e-03 -8.0191306161386899e-01 0.0000000000000000e+00  -6.5040383894325593e-04 -9.8984812200120287e-01 0.0000000000000000e+00  1.0123879646630751e-03 -9.6974635143315213e-01 0.0000000000000000e+00  -2.4499424509972778e-03 -9.2167740860627201e-01 0.0000000000000000e+00  -7.6057168854617996e-04 -9.8270489633728597e-01 0.0000000000000000e+00  8.3917564780544573e-04 -9.7240286574036094e-01 0.0000000000000000e+00  1.7417098311496848e-03 -4.5927647319872122e-01 0.0000000000000000e+00  1.6641765615268145e-03 -7.6337973774691936e-01 0.0000000000000000e+00  4.4825783666139762e-03 -8.0134487985202318e-01 0.0000000000000000e+00  3.3695268185196525e-04 -9.9697474840150579e-01 0.0000000000000000e+00  6.4973931127632056e-04 -9.6617239950707834e-01 0.0000000000000000e+00  -9.3402803945341617e-04 -9.6445029306132513e-01 0.0000000000000000e+00  2.2886018060049446e-03 -7.1248615886555822e-01 0.0000000000000000e+00  1.0910782032334254e-03 -8.8573283270110126e-01 0.0000000000000000e+00  -3.5024875585191462e-03 -7.9203865702618792e-01 0.0000000000000000e+00  -2.0839021266427782e-03 -8.2006535907245093e-01 0.0000000000000000e+00  -6.5130183143427838e-04 -9.8135391200135980e-01 0.0000000000000000e+00  1.4219052170142410e-03 -7.6350780283726638e-01 0.0000000000000000e+00  1.2783260505340732e-03 -9.6706329922301626e-01 0.0000000000000000e+00  2.1173416385511512e-04 -9.8707908258249044e-01 0.0000000000000000e+00  7.8750966467838746e-05 -9.9363044883086449e-01 0.0000000000000000e+00  2.2788270309624936e-03 -8.6476620237492607e-01 0.0000000000000000e+00  -1.2828238860779773e-03 -5.1515815315590285e-01 0.0000000000000000e+00  -5.6994685911027076e-05 -7.6646480826600727e-01 0.0000000000000000e+00  2.2957572822939198e-03 -8.6553107528433193e-01 0.0000000000000000e+00  2.0722232904599527e-04 -3.1436790813676146e-01 0.0000000000000000e+00  -5.6817944002439946e-03 -1.8801689082234532e-01 0.0000000000000000e+00  -2.1439886048225665e-03 -8.5148043773199567e-01 0.0000000000000000e+00  1.0706818996369938e-03 -9.3678416285561150e-01 0.0000000000000000e+00  -1.4067959404252817e-04 -8.8739847319028187e-01 0.0000000000000000e+00  -6.9135368076578968e-04 -9.0897007875916647e-01 0.0000000000000000e+00  3.5224418758257880e-03 -4.0357972410952675e-01 0.0000000000000000e+00  9.4615535831454878e-05 -9.9961952468459492e-01 0.0000000000000000e+00  7.7646864362745927e-04 -6.4195246855342547e-01 0.0000000000000000e+00  -3.2017883890574916e-03 -5.3255268477018869e-01 0.0000000000000000e+00  -3.3578063689472804e-03 -5.9484409179811448e-01 0.0000000000000000e+00  -2.3095440324950728e-03 -6.1335787740051839e-01 0.0000000000000000e+00  -4.8565244626532222e-03 -6.6257458058954843e-01 0.0000000000000000e+00  1.4635866861496538e-03 -8.6774126375784688e-01 0.0000000000000000e+00  -2.3329191975146601e-03 -8.7777853431777464e-01 0.0000000000000000e+00  -5.4662841860231293e-04 -9.3311837568336176e-01 0.0000000000000000e+00  -7.1734545409507522e-04 -9.7069018959232645e-01 0.0000000000000000e+00  1.0214220597297985e-03 -2.6345575239426644e-01 0.0000000000000000e+00  1.7141105049529870e-03 -3.6022247456440837e-01 0.0000000000000000e+00  -2.2309015720116399e-03 -3.2101498678163354e-01 0.0000000000000000e+00  7.2144265869243662e-04 -9.5182814628552992e-01 0.0000000000000000e+00  -1.7755699627851340e-04 -9.6328881091039364e-01 0.0000000000000000e+00  -2.8597608421760956e-03 -7.9497061733075536e-01 0.0000000000000000e+00  3.8921392201016203e-