<?xml version="1.0"?>
<VTKFile type="UnstructuredGrid"  version="0.1"  >
<UnstructuredGrid>
<Piece  NumberOfPoints="1385" NumberOfCells="2640">
<Points>
<DataArray  type="Float64"  NumberOfComponents="3"  format="ascii">0 0 0  1 0 0  1 1 0  0 1 0  0.5 0 0  1 0.5 0  0.5 1 0  0 0.5 0  0.5 0.5 0  0 0.25 0  0.25 0 0  0.25 1 0  0 0.75 0  1 0.25 0  0.75 0 0  1 0.75 0  0.75 1 0  0.7083333333333333 0.2916666666666667 0  0.2916666666666666 0.7083333333333334 0  0.375 0.25 0  0.75 0.625 0  0.2569444444444444 0.4652777777777778 0  0.5366379310344828 0.7535919540229885 0  0.1875 0.1875 0  0.8125 0.8125 0  0.869047619047619 0.375 0  0.1450441919191919 0.6052714646464646 0  0.375 0.8690476190476191 0  0.5526960784313725 0.1825980392156862 0  0.8385416666666666 0.1614583333333334 0  0.1614583333333333 0.8385416666666667 0  0.6736111111111112 0.4652777777777778 0  0.1367521367521368 0.3477564102564102 0  0.6570970491253563 0.8648656830417855 0  0.5102479397556124 0.3386260301221938 0  0.3654513888888889 0.5737847222222222 0  0.6929750044954185 0.1362784921584263 0  0.388576102743835 0.411911725237599 0  0.6091269841269842 0.5942460317460317 0  0.875 0.6875 0  0.427278890279516 0.119889445139758 0  0.8544456845238095 0.5213913690476191 0  0.125 0 0  0 0.125 0  1 0.875 0  0.875 1 0  0.1280008648150532 0.4769292340226777 0  0.2695382451711197 0.3321750950221553 0  0.7031567235715964 0.7447810921428012 0  0.625 0 0  0.375 0 0  0.125 1 0  0.875 0 0  0 0.375 0  0 0.625 0  1 0.375 0  0.375 1 0  1 0.125 0  0 0.875 0  0.625 1 0  1 0.625 0  0.2979288363930608 0.1201429454643536 0  0.410919540229885 0.7484605911330049 0  0.5325041980395562 0.878905151526474 0  0.4831670727569156 0.6331060043826487 0  0.1735997378973042 0.7204747378973043 0  0.2534919507575758 0.5772372159090909 0  0.2633928571428572 0.8876488095238095 0  0.8199404761904761 0.2730654761904762 0  0.75830270586982 0.3919383189517417 0  0.5750282248382511 0.4237522353023667 0  0.6008360210023379 0.2794828358598495 0  0.08163442644334186 0.6821295860397322 0  0.08333333333333333 0.1875 0  0.2028380815996574 0.08844602719988583 0  0.2766521142611967 0.2325436572164097 0  0.90625 0.78125 0  0.890625 0.890625 0  0.7545696325008384 0.8973565441669461 0  0.5625 0.08086590340834317 0  0.09077380952380953 0.09077380952380952 0  0.4610923478694773 0.209034015149656 0  0.7542527598351648 0.5248380520595106 0  0.6459235536037465 0.3619913988405765 0  0.7560381768882634 0.20506142233852 0  0.07073252688172042 0.8125 0  0.0924753097241701 0.9078102849914793 0  0.9292674731182795 0.1875 0  0.9075246902758297 0.09218971500852073 0  0.8125 0.07073252688172045 0  0.2400955776842301 0.7869705776842302 0  0.9121050213379069 0.2781978201831695 0  0.7916878157143976 0.7239689078571988 0  0.9345238095238094 0.4375 0  0.4375 0.9345238095238095 0  0.3725616989755203 0.6651895248862173 0  0.06536271996350887 0.5625 0  0.9348362560379583 0.5625 0  0.456646798987055 0.8277247094351965 0  0.1875 0.9355758238725954 0  0.6169761231634859 0.6939779188977889 0  0.6226854751147515 0.7827911461419014 0  0.3305695598137626 0.7901697871282585 0  0.5865305325818898 0.5101085479043448 0  0.6622701297028378 0.2177663989757395 0  0.1354166666666667 0.2591702279202279 0  0 0.3125 0  0.2094429575680048 0.3936361846162499 0  0.836666296419157 0.607917407161686 0  0.6875 1 0  0.214261555450504 0.6492551722020035 0  0 0.4375 0  0.07731537126068377 0.40625 0  0.3427725432967068 0.4879566233699599 0  0.3550792513951871 0.3331953632609953 0  0.4462473953896857 0.2887834789342508 0  0.4747801464819794 0.417386052030127 0  0.8229836475148948 0.4443292349237342 0  0.7322605135514757 0.8199240278289671 0  0.6756431877205955 0.5468989748126787 0  0.1968419507215863 0.5194573482612496 0  0.3285590277777778 0.9345238095238095 0  0.8125 1 0  0.4198917601920009 0.5134893045331258 0  0.5232405503206691 0.2595791787880157 0  1 0.9375 0  0.1987510870015086 0.3025185951894431 0  0.5625 1 0  0.6005390654136388 0.9228110509230952 0  0.6411254848194414 0.07704872765442942 0  0.3357233162523242 0.1855113224530532 0  0.6730653396610877 0.6393887462324165 0  0.310966987234063 0.6240019765311626 0  0.7368737836204349 0.07457755202327881 0  0.6192316414418171 0.1485238406378594 0  0.5432429670607106 0.678552703844006 0  0.4754371679695679 0.7103946803120881 0  0.07501324890749672 0.3043839897335739 0  0.5358146975860403 0.5688321463205916 0  0.3115271739500156 0.3982137365971444 0  0.3625191397122174 0.0767854603650549 0  0.5024029442563831 0.1264128223758444 0  0.4375 0 0  0.4699946908887376 0.06379961173775725 0  0.9375 0.71875 0  0.9272105898044465 0.635671179608893 0  0.9375 1 0  0.6690971819568612 0.9331530898202766 0  0.1073454944778885 0.7499206387638554 0  0.8699082999280406 0.2232403652524313 0  0.5773118091863964 0.3548027349159383 0  0.1354166666666667 0.1428571428571428 0  0.3125 0 0  0.8241684193077341 0.9257452995055244 0  0.4352314948354036 0.3586940847489378 0  0.4351301473778832 0.5819726043539077 0  0.8073232928518163 0.3419398170341962 0  0.7775949246947366 0.1298519409204575 0  0.6875 0 0  0.7413513991851041 0.457933324954483 0  0.939453125 0.841796875 0  0.5630355154606987 0.8171875156478349 0  0.9345238095238095 0.3461466592368577 0  0.9375 0 0  1 0.0625 0  0.0625 1 0  0 0.9375 0  0.06552178593177167 0.4969053669623468 0  0.1424866619031703 0.4130277709291224 0  0.1275287182444726 0.5422946908002588 0  0.2637686595586339 0.06413888464529549 0  0.2524263535491086 0.1697437503243817 0  0.7367218397988525 0.6888573970660841 0  0.0625 0 0  0 0.0625 0  0.8463594539285995 0.7578283617857982 0  0.3128751192101563 0.2851997374369947 0  0.4015281788351144 0.1806421385113692 0  0.1910251795116588 0.4553332197174453 0  0.287797471442006 0.5222621440543902 0  0.3962628745986055 0.8097380085535307 0  0.3505895299554843 0.7304878890838692 0  0.5019151500495276 0.9356042615328103 0  0.9374389419410134 0.4999931039076005 0  0.3125 1 0  0.1875 1 0  1 0.5625 0  0.4375 1 0  1 0.3125 0  1 0.4375 0  0.8125 0 0  1 0.1875 0  0.5625 0 0  0.1875 0 0  0 0.1875 0  0 0.5625 0  0 0.6875 0  0 0.8125 0  1 0.6875 0  1 0.8125 0  0.8021696218581627 0.6612893947866073 0  0.06154922295426143 0.6239401126946708 0  0.9359375 0.9359375 0  0.4666158024849896 0.7691515918155014 0  0.2318201265217025 0.7064974250277525 0  0.1565954253579966 0.6635489312486841 0  0.1598132503680848 0.7787147500325552 0  0.3146529991605639 0.8510876378205265 0  0.1461873209418733 0.05982804528877814 0  0.06109554988524315 0.2446551776247686 0  0.8054950308560754 0.5564226538848541 0  0.470541749491976 0.8853316336952531 0  0.6948472567465137 0.4042308563372457 0  0.8802828472348889 0.4658893256343853 0  0.6788075634946739 0.7974194205806069 0  0.2155048659603867 0.2428201584940968 0  0.8131223143423806 0.2132171049028394 0  0.4330798005432235 0.6671274900735726 0  0.6015279126162613 0.2187368078743274 0  0.8061636571464289 0.8703766630361714 0  0.7008230445061776 0.3478568388444072 0  0.8638466246958771 0.3147095987735538 0  0.204801534004265 0.8789209409594009 0  0.2449006736431132 0.9424182882803838 0  0.7611268409371427 0.2643056884799992 0  0.7552800864046191 0.7678006649959446 0  0.5983639638906616 0.864113435029236 0  0.1956559506814437 0.577281203577426 0  0.3527670268164207 0.1320469097565204 0  0.7530364577483248 0.3262386077083089 0  0.4535919187979363 0.4690107087451527 0  0.8824869791666666 0.8336588541666666 0  0.8814453125 0.9451171875 0  0.5582987942628019 0.622421666543858 0  0.6817532446064828 0.6939001801354731 0  0.3830295138888889 0.9450968952922078 0  0.4140603937012541 0.05211333372716105 0  0.5535864501303013 0.3060591985391672 0  0.6560130086346878 0.2729726562211558 0  0.890203140221684 0.5948314305427268 0  0.7043857725999024 0.593980890020804 0  0.5105843922695152 0.8016828014338627 0  0.05365910753708378 0.7315110031682004 0  0.616904573672261 0.4621186633436136 0  0.5338511646455415 0.387875898899613 0  0.5231769258947843 0.4477682463140762 0  0.650302973237622 0.7370722302085519 0  0.3927483139621257 0.4662414504529014 0  0.8034595960585199 0.4972538342758211 0  0.7738337841682438 0.9496376207663251 0  0.7193737507158268 0.954685447650112 0  0.482525916480686 0.5528257169991676 0  0.2533501157346781 0.2809495420003238 0  0.3118487924482243 0.5702930126570319 0  0.6257598847669529 0.4104163315430518 0  0.1354166666666667 0.1955605158730158 0  0.04166666666666666 0.15625 0  0.3956448985530264 0.6174149462065157 0  0.8102897701818546 0.3938784238208349 0  0.2641154190013625 0.8344469561943118 0  0.642852220770013 0.5068794586563659 0  0.05271458179508221 0.355846947336007 0  0.7021551360070266 0.8921457280225779 0  0.5692125776683765 0.1328512638850284 0  0.5206162811937602 0.04865158770992991 0  0.6001838442201555 0.04540556991297563 0  0.2597716608242787 0.4118346398477178 0  0.4040584599473195 0.3179589136784675 0  0.1480337679295207 0.8941560631483065 0  0.1344356707112281 0.9466251177415842 0  0.7114696411829317 0.4983917389078826 0  0.7585704698442475 0.5751926345944629 0  0.2189131956390871 0.04022068508159698 0  0.2476935455192043 0.1123642267635843 0  0.185995005654517 0.1365524537205238 0  0.6223414373308711 0.643380839165121 0  0.5732602596637543 0.7190051747306219 0  0.268358222364537 0.6586246524467934 0  0.3265879848129173 0.2369791782191225 0  0.1267095595787346 0.7034787238999181 0  0.1115202922226038 0.6421997933884982 0  0.3128688392940203 0.07260997451790079 0  0.550724900485678 0.9253360991633187 0  0.7142608810459105 0.2384904702214873 0  0.7045869185243887 0.1871826897887429 0  0.890625 0.734375 0  0.953125 0.765625 0  0.2111812642821677 0.8286209446459138 0  0.9590293078204457 0.09375 0  0.953431269039847 0.1435719386408004 0  0.04097069217955424 0.90625 0  0.04656873096015299 0.8564280613591996 0  0.1078743037981226 0.8541621766048062 0  0.8921256962018773 0.1458378233951939 0  0.8521576979194619 0.1084496634207678 0  0.8655663982740958 0.05464346096571447 0  0.04005659640905543 0.09375 0  0.1001448316533417 0.04246776244228261 
[...]
<PointData  Vectors="f_8394-0-0"> 
<DataArray  type="Float64"  Name="f_8394-0-0"  NumberOfComponents="3" format="ascii">-1.4675012779435838e-02 7.1861078162238218e-03 0.0000000000000000e+00  -8.4419911859008301e-01 1.4791672560402480e-03 0.0000000000000000e+00  -9.1367948316710546e-01 2.5501758599843008e-03 0.0000000000000000e+00  -8.3707351120727369e-01 -1.6085521888940368e-05 0.0000000000000000e+00  -4.8645488083572230e-01 2.9577190529998520e-03 0.0000000000000000e+00  -9.9695703846600403e-01 -5.7079785270017225e-05 0.0000000000000000e+00  -9.9760637960659504e-01 1.6360515998843707e-04 0.0000000000000000e+00  -4.8085254056792270e-01 5.5534045275222044e-03 0.0000000000000000e+00  -8.3821549730827993e-01 -1.7120810620215310e-03 0.0000000000000000e+00  -2.5403263483688093e-01 2.7995824858642604e-03 0.0000000000000000e+00  -2.5504584697179206e-01 3.6765907534008655e-03 0.0000000000000000e+00  -9.4613801541078035e-01 -1.0071614369167037e-03 0.0000000000000000e+00  -6.7364874800426888e-01 5.1445200483228246e-04 0.0000000000000000e+00  -9.4706729001939727e-01 -1.7280956377704881e-03 0.0000000000000000e+00  -6.8442753062240236e-01 -1.0005390249623746e-03 0.0000000000000000e+00  -9.8457412334419181e-01 1.0146746030059717e-03 0.0000000000000000e+00  -9.8571485874672893e-01 6.7312456984058855e-04 0.0000000000000000e+00  -8.4636181859721593e-01 1.4131974019428450e-03 0.0000000000000000e+00  -8.4345661106445102e-01 2.8341956926054013e-03 0.0000000000000000e+00  -5.8084507717594813e-01 -2.4578341440230633e-03 0.0000000000000000e+00  -9.7937075527253670e-01 -9.3819260680455541e-04 0.0000000000000000e+00  -6.6294467376771338e-01 -1.0435769292537755e-03 0.0000000000000000e+00  -9.6330965665824819e-01 5.6816154249111905e-04 0.0000000000000000e+00  -3.5844826247954886e-01 -4.1379640735731971e-03 0.0000000000000000e+00  -9.9890929021104691e-01 2.0237212238516378e-04 0.0000000000000000e+00  -9.4993480232863348e-01 1.0149822194308600e-03 0.0000000000000000e+00  -6.7548639586038106e-01 -1.6304420474733683e-03 0.0000000000000000e+00  -9.5026816729667440e-01 4.8671510425595671e-04 0.0000000000000000e+00  -6.7738558625379930e-01 3.1551112660399006e-03 0.0000000000000000e+00  -8.3643213056199150e-01 -1.5295699125660867e-03 0.0000000000000000e+00  -8.3755514093515326e-01 -2.4308775102485081e-03 0.0000000000000000e+00  -9.1259598997649172e-01 7.2085738857274873e-04 0.0000000000000000e+00  -4.6075480831927018e-01 -1.0702772101500446e-03 0.0000000000000000e+00  -9.9905477922583374e-01 2.0617133084421813e-04 0.0000000000000000e+00  -7.4561576207028246e-01 -3.6171519586622458e-03 0.0000000000000000e+00  -8.1318736264014879e-01 1.6348091933657827e-03 0.0000000000000000e+00  -7.3114566727566432e-01 -2.5615549841707108e-03 0.0000000000000000e+00  -7.1909106928720690e-01 -1.7530440029815131e-03 0.0000000000000000e+00  -9.3130317624702141e-01 -8.5348798102746759e-04 0.0000000000000000e+00  -9.9996089532193477e-01 -5.2926257082142047e-05 0.0000000000000000e+00  -5.2681481097499938e-01 4.1110436130787908e-03 0.0000000000000000e+00  -9.8294508056198326e-01 3.3101574558992708e-04 0.0000000000000000e+00  -1.3325078960440093e-01 4.6339801283668269e-03 0.0000000000000000e+00  -1.1451953249951240e-01 -7.0663876331542724e-04 0.0000000000000000e+00  -9.5479224517376604e-01 1.8378128221318013e-03 0.0000000000000000e+00  -9.5586545703652981e-01 1.1582560460902114e-03 0.0000000000000000e+00  -5.7629319299144022e-01 2.1305340564627961e-03 0.0000000000000000e+00  -5.7006345037913553e-01 -4.7265167211532899e-03 0.0000000000000000e+00  -9.9135964896989059e-01 -4.8600951788568825e-04 0.0000000000000000e+00  -5.9163753009675257e-01 5.6707875292407936e-04 0.0000000000000000e+00  -3.7305251982934001e-01 5.7815258028715288e-03 0.0000000000000000e+00  -8.9849328851962240e-01 -2.2947574845370022e-03 0.0000000000000000e+00  -7.7306950010340258e-01 3.3047129278921394e-03 0.0000000000000000e+00  -3.7240559467598011e-01 5.4628561509055124e-03 0.0000000000000000e+00  -5.8991806682087977e-01 2.4070747244557822e-03 0.0000000000000000e+00  -9.8014622430241505e-01 -1.1999993857063074e-03 0.0000000000000000e+00  -9.7899041066622128e-01 1.7907265387189755e-04 0.0000000000000000e+00  -9.0084716676693444e-01 -2.5138583479648036e-03 0.0000000000000000e+00  -7.6787306607471029e-01 2.6579863548277238e-03 0.0000000000000000e+00  -9.9893741134413627e-01 -3.3791595171794792e-05 0.0000000000000000e+00  -9.9867576269039282e-01 2.9736448293554707e-04 0.0000000000000000e+00  -4.0066076798029621e-01 5.2438416974176366e-03 0.0000000000000000e+00  -9.1427259520768756e-01 -1.3168606765002755e-03 0.0000000000000000e+00  -9.8646636954401234e-01 -9.8392194350671591e-04 0.0000000000000000e+00  -8.9468490611155649e-01 -2.1092179597750338e-03 0.0000000000000000e+00  -7.8440639204234508e-01 2.1639713074621536e-03 0.0000000000000000e+00  -7.4476042293634492e-01 4.7320405151955458e-03 0.0000000000000000e+00  -9.1266121011549872e-01 -2.2498391359330044e-03 0.0000000000000000e+00  -8.8328591203083495e-01 -1.3462178099259425e-03 0.0000000000000000e+00  -9.1314577174258660e-01 1.5589089142055840e-03 0.0000000000000000e+00  -8.4095538393321023e-01 2.5063399552729265e-03 0.0000000000000000e+00  -7.7643822970380139e-01 8.9386722432371890e-04 0.0000000000000000e+00  -6.9138691025968935e-01 -3.4931656846042269e-03 0.0000000000000000e+00  -2.5954923557345611e-01 -5.0137452448270337e-03 0.0000000000000000e+00  -2.7857471644149956e-01 -4.0892926995824141e-03 0.0000000000000000e+00  -4.9396520461752741e-01 3.6304258224468811e-03 0.0000000000000000e+00  -9.9460867775975859e-01 3.7254166557493251e-04 0.0000000000000000e+00  -9.7824780728178051e-01 7.3689513016908699e-04 0.0000000000000000e+00  -9.9729148091423148e-01 1.6105365497232071e-04 0.0000000000000000e+00  -5.9262928931480252e-01 -2.8380493673858531e-03 0.0000000000000000e+00  -1.9055701894088639e-01 3.6648784520565691e-03 0.0000000000000000e+00  -6.1483823551396899e-01 -1.8991915203007137e-03 0.0000000000000000e+00  -9.6035354189999866e-01 7.4078351720341384e-04 0.0000000000000000e+00  -8.4151719151283555e-01 -2.6564941601864289e-03 0.0000000000000000e+00  -8.2415214683489146e-01 -2.5431693541901335e-03 0.0000000000000000e+00  -7.7661144550894312e-01 -2.6520438261945500e-04 0.0000000000000000e+00  -8.4573163273595831e-01 -1.5581650160158712e-03 0.0000000000000000e+00  -9.0235915963201785e-01 1.5321010879388308e-03 0.0000000000000000e+00  -8.3579890440018034e-01 -2.1773373348153990e-03 0.0000000000000000e+00  -7.7713565185482447e-01 3.6711397168716076e-03 0.0000000000000000e+00  -8.5199040745731414e-01 -1.2464610452435076e-03 0.0000000000000000e+00  -9.2646163692946881e-01 -1.7171653531879993e-03 0.0000000000000000e+00  -9.9899750425914069e-01 1.3258702644042275e-04 0.0000000000000000e+00  -9.8180829041031392e-01 5.4958185041803498e-04 0.0000000000000000e+00  -9.8211346662031984e-01 3.2564171924523520e-04 0.0000000000000000e+00  -8.5884642055314442e-01 -1.8729287510180492e-03 0.0000000000000000e+00  -5.8102057167442278e-01 -3.0448045509099408e-03 0.0000000000000000e+00  -9.9790539222595986e-01 1.2192445990773237e-05 0.0000000000000000e+00  -9.6127080610371163e-01 3.3640448189631300e-04 0.0000000000000000e+00  -8.9818664885234367e-01 -2.2143798062858877e-03 0.0000000000000000e+00  -9.6541603681183075e-01 -1.0494683103674518e-03 0.0000000000000000e+00  -9.8434954108406791e-01 -5.7501447338842437e-04 0.0000000000000000e+00  -9.0390224471506420e-01 1.9210092887440577e-03 0.0000000000000000e+00  -8.9358928573576124e-01 1.1736513624750478e-03 0.0000000000000000e+00  -7.6655269018153427e-01 -3.2392428722103350e-03 0.0000000000000000e+00  -3.8683511708216795e-01 2.7527839276014765e-03 0.0000000000000000e+00  -3.1004309895482507e-01 5.7968361088692466e-03 0.0000000000000000e+00  -5.7095017088676725e-01 4.3285076506258402e-03 0.0000000000000000e+00  -9.9114241184304108e-01 -2.0573896868170127e-04 0.0000000000000000e+00  -9.9381537115832730e-01 6.0711312375094639e-04 0.0000000000000000e+00  -7.5463526833075556e-01 -3.1394120504872614e-04 0.0000000000000000e+00  -4.1575528221224595e-01 -2.8824602899179541e-03 0.0000000000000000e+00  -4.5950103300462358e-01 4.8881913907811159e-05 0.0000000000000000e+00  -7.3237555341099581e-01 -1.4763269638153886e-03 0.0000000000000000e+00  -6.3615164010265113e-01 3.4670867094532543e-03 0.0000000000000000e+00  -6.7648496825443827e-01 9.0327035819404156e-04 0.0000000000000000e+00  -7.8481714512459244e-01 1.7049698320628082e-03 0.0000000000000000e+00  -9.5110329199745836e-01 -9.0338729954980712e-04 0.0000000000000000e+00  -1.0000620326707659e+00 -2.5208916823227234e-05 0.0000000000000000e+00  -9.4112232777001947e-01 1.2982583325418795e-03 0.0000000000000000e+00  -6.5343212698447650e-01 4.7253113082259546e-03 0.0000000000000000e+00  -9.5175723161997416e-01 -2.0626272891245412e-03 0.0000000000000000e+00  -9.7386016030493572e-01 9.6698978816145420e-04 0.0000000000000000e+00  -8.0969625783030919e-01 3.0389998805313567e-03 0.0000000000000000e+00  -7.0023572286480396e-01 -1.8319635840232662e-03 0.0000000000000000e+00  -9.3435610271662761e-01 2.3608718932528472e-03 0.0000000000000000e+00  -4.8770399609427845e-01 3.4162283843474639e-03 0.0000000000000000e+00  -9.9986920050334449e-01 -4.0342750548649775e-05 0.0000000000000000e+00  -9.9936043746022629e-01 8.6670418259937598e-05 0.0000000000000000e+00  -6.6273318266802195e-01 1.8483720098677048e-03 0.0000000000000000e+00  -5.0491147455884577e-01 -6.2963677221282155e-03 0.0000000000000000e+00  -9.6780672458917139e-01 -1.1839108962260203e-03 0.0000000000000000e+00  -7.9832751202592456e-01 -1.2391338174783106e-03 0.0000000000000000e+00  -7.3095107935988157e-01 3.7936368585190783e-03 0.0000000000000000e+00  -7.0021559380666187e-01 9.9864249778043590e-04 0.0000000000000000e+00  -9.4299925866752476e-01 1.1946583758146168e-03 0.0000000000000000e+00  -9.3113351580910142e-01 1.8452644606876678e-03 0.0000000000000000e+00  -3.6611323958249464e-01 2.8868526908744571e-03 0.0000000000000000e+00  -8.9756691602151562e-01 6.5766046496895658e-04 0.0000000000000000e+00  -6.5831609392811630e-01 3.2427302582836437e-03 0.0000000000000000e+00  -4.1871772404377428e-01 -3.6247846851040766e-03 0.0000000000000000e+00  -5.9508905323827943e-01 3.2076760256119800e-03 0.0000000000000000e+00  -4.3228130545558496e-01 4.4006857634775187e-03 0.0000000000000000e+00  -5.0683389020103331e-01 -4.3342429902919338e-03 0.0000000000000000e+00  -9.9709675509508133e-01 2.2034471728610283e-04 0.0000000000000000e+00  -9.9993346310613185e-01 -5.1351859201576033e-05 0.0000000000000000e+00  -9.3697753484341995e-01 -7.5419204870490761e-05 0.0000000000000000e+00  -9.9925660926774629e-01 -1.9403362103117411e-04 0.0000000000000000e+00  -7.5192071336891697e-01 -2.6471020052540040e-03 0.0000000000000000e+00  -8.8712937930510960e-01 -1.4559341105459811e-03 0.0000000000000000e+00  -8.0981707589514274e-01 1.0570943902221894e-03 0.0000000000000000e+00  -2.7134271666815829e-01 -2.2797544504082889e-04 0.0000000000000000e+00  -3.1438072270823481e-01 2.8443000999559612e-03 0.0000000000000000e+00  -9.8242761512920396e-01 -8.4754361241468068e-04 0.0000000000000000e+00  -7.1947492486516329e-01 1.6494246958717873e-03 0.0000000000000000e+00  -8.5410710996586992e-01 2.7498180622157475e-03 0.0000000000000000e+00  -9.1672639075277007e-01 9.3158567635720502e-04 0.0000000000000000e+00  -7.9352529917356329e-01 3.1013556825530975e-03 0.0000000000000000e+00  -6.4022722399481558e-01 2.9508347898723683e-03 0.0000000000000000e+00  -9.2824857372927128e-01 -1.2805859889847282e-03 0.0000000000000000e+00  -9.7603001667481515e-01 -7.4262129870628080e-04 0.0000000000000000e+00  -9.8039768396212512e-01 -1.1973294693300440e-03 0.0000000000000000e+00  -9.5560944301070405e-01 -1.7661348169514257e-03 0.0000000000000000e+00  -8.1058764924282289e-01 3.2666435485496637e-03 0.0000000000000000e+00  -8.7002098598947852e-01 -2.1568341676096170e-03 0.0000000000000000e+00  -8.7066959702327629e-01 -2.8556664506127483e-03 0.0000000000000000e+00  -7.9960902535866396e-01 -3.1308601816823489e-04 0.0000000000000000e+00  -5.2684632462715986e-01 -1.4067877520659786e-03 0.0000000000000000e+00  -5.3187095558078690e-01 -1.0590891033042671e-03 0.0000000000000000e+00  -6.2594154771067023e-01 -3.1050117022541081e-03 0.0000000000000000e+00  -3.1692750057905023e-01 1.9820125192781379e-03 0.0000000000000000e+00  -4.1936932359072798e-01 3.4826313262556752e-03 0.0000000000000000e+00  -9.9122132696235865e-01 2.2918411475403300e-04 0.0000000000000000e+00  -7.1176148578804346e-02 5.4134316795113741e-03 0.0000000000000000e+00  -5.3876596047901959e-02 -1.4513139146907043e-03 0.0000000000000000e+00  -9.9975019931105902e-01 1.9025522692278640e-04 0.0000000000000000e+00  -5.5740094905253501e-01 -4.7972091115244253e-03 0.0000000000000000e+00  -5.5849745811412899e-01 1.1832494440425223e-03 0.0000000000000000e+00  -5.9468013095257977e-01 -4.8687260192720183e-03 0.0000000000000000e+00  -7.2384473621218048e-01 -3.5936396349549038e-03 0.0000000000000000e+00  -9.3157895136210944e-01 -1.0919606836257700e-03 0.0000000000000000e+00  -8.8659166733029782e-01 -1.3973178926540708e-04 0.0000000000000000e+00  -9.9104772857025747e-01 -5.2199949870805964e-04 0.0000000000000000e+00  -9.9222531973565087e-01 5.2228394924158650e-04 0.0000000000000000e+00  -9.6498232721752641e-01 -6.1247575160550127e-04 0.0000000000000000e+00  -9.2372133044529603e-01 -2.1792380371585818e-03 0.0000000000000000e+00  -9.9995444153709279e-01 -2.8198251125655105e-05 0.0000000000000000e+00  -9.8981212068707491e-01 2.0971675114850880e-04 0.0000000000000000e+00  -9.6547721062648728e-01 -1.4326735445426841e-03 0.0000000000000000e+00  -9.9120674363433847e-01 -5.9246724416203711e-04 0.0000000000000000e+00  -7.3015096899065934e-01 2.4003408974539080e-03 0.0000000000000000e+00  -9.2448680007396500e-01 -1.8105670308439237e-03 0.0000000000000000e+00  -5.4035812036047726e-01 5.0701058762120943e-03 0.0000000000000000e+00  -1.9465273797833446e-01 2.5422522070935472e-03 0.0000000000000000e+00  -1.9394380636977707e-01 2.5538262250738714e-03 0.0000000000000000e+00  -5.2294683491167770e-01 -3.1897215390490341e-04 0.0000000000000000e+00  -6.2813419186674646e-01 -1.8308848208866135e-03 0.0000000000000000e+00  -7.2616456302213528e-01 2.5932484922240127e-03 0.0000000000000000e+00  -9.9344743559461002e-01 6.6909421749034026e-04 0.0000000000000000e+00  -9.6849250908037743e-01 -5.8353095979063463e-04 0.0000000000000000e+00  -9.9464099201246692e-01 4.7350446893662523e-04 0.0000000000000000e+00  -6.3945441841132766e-01 -9.0290356028630697e-04 0.0000000000000000e+00  -9.5268223000738428e-01 -4.9663306781677630e-04 0.0000000000000000e+00  -9.4743478242470702e-01 1.1040522387268381e-03 0.0000000000000000e+00  -8.1062532273910581e-01 2.9035276888904615e-03 0.0000000000000000e+00  -7.3318176093423992e-01 -3.9513317303235818e-03 0.0000000000000000e+00  -8.1199930441655099e-01 -5.2384291688878371e-04 0.0000000000000000e+00  -9.2143553493041930e-01 1.8265029284626477e-03 0.0000000000000000e+00  -2.1189460048439607e-01 5.4203960162092224e-03 0.0000000000000000e+00  -2.9310366251224440e-01 -4.2438018456536497e-03 0.0000000000000000e+00  -9.8022615565039173e-01 5.3726019082278587e-04 0.0000000000000000e+00  -9.7863302751140968e-01 1.1703706978282158e-03 0.0000000000000000e+00  -8.8655384678899374e-01 -1.4057455402570751e-03 0.0000000000000000e+00  -9.7707125369702963e-01 5.0663138457639201e-04 0.0000000000000000e+00  -9.9477391495010825e-01 -4.7986779044389971e-04 0.0000000000000000e+00  -4.5030425307278421e-01 3.3899954041755158e-03 0.0000000000000000e+00  -8.5961395482446012e-01 2.1505750874302176e-03 0.0000000000000000e+00  -8.9577673282824688e-01 3.4345103038145863e-03 0.0000000000000000e+00  -7.2551250796214084e-01 -4.2078468895459520e-04 0.0000000000000000e+00  -9.9373637533620596e-01 -3.9217445024314346e-04 0.0000000000000000e+00  -8.7138273217094819e-01 1.4357909005082714e-03 0.0000000000000000e+00  -9.2684982735212984e-01 1.0328478060214197e-03 0.0000000000000000e+00  -8.8086860357732510e-01 1.0573232306920755e-03 0.0000000000000000e+00  -9.3047377918552032e-01 1.3472955067855286e-03 0.0000000000000000e+00  -8.5061675195494479e-01 -2.6239993929643157e-03 0.0000000000000000e+00  -9.9921616828607374e-01 1.4433502936428422e-04 0.0000000000000000e+00  -9.9462053481513379e-01 -2.6305390434222531e-04 0.0000000000000000e+00  -7.0421856496743118e-01 1.5993148494551912e-03 0.0000000000000000e+00  -4.6918586012747016e-01 4.8302902439829043e-03 0.0000000000000000e+00  -8.7711083726276318e-01 -6.8796552084787743e-04 0.0000000000000000e+00  -8.0158567575830397e-01 2.6443562148659172e-03 0.0000000000000000e+00  -9.8812404201485693e-01 -7.0858508276638865e-04 0.0000000000000000e+00  -9.6727926441318868e-01 1.0118560150329525e-03 0.0000000000000000e+00  -9.2222171358693028e-01 -2.5134246464980081e-03 0.0000000000000000e+00  -9.7886202134036493e-01 -6.7289909329917852e-04 0.0000000000000000e+00  -9.7297371858231163e-01 9.8077613237271266e-04 0.0000000000000000e+00  -4.6033432000536523e-01 2.6650607609958743e-03 0.0000000000000000e+00  -7.6344047344577115e-01 1.6046234666661635e-03 0.0000000000000000e+00  -8.0624053878719937e-01 3.4355354644444169e-03 0.0000000000000000e+00  -9.9694351962337668e-01 4.1314774617429162e-04 0.0000000000000000e+00  -9.6610438459713721e-01 8.8335442455891866e-04 0.0000000000000000e+00  -9.6647142066493996e-01 -1.1146838896481936e-03 0.0000000000000000e+00  -7.1135137020759254e-01 1.7123971618201173e-03 0.0000000000000000e+00  -8.8547543034083054e-01 1.2221154562957193e-03 0.0000000000000000e+00  -7.9170669178194331e-01 -3.6566433073242921e-03 0.0000000000000000e+00  -8.2093595208206649e-01 -2.6379958447165786e-03 0.0000000000000000e+00  -9.8171419481377464e-01 -6.5894102871733029e-04 0.0000000000000000e+00  -7.5124947079013793e-01 1.5025286285911925e-03 0.0000000000000000e+00  -9.6251883479593214e-01 1.4414129160454370e-03 0.0000000000000000e+00  -9.8951421303152998e-01 1.6735458312266971e-04 0.0000000000000000e+00  -9.9561967176211930e-01 1.3394798097021710e-04 0.0000000000000000e+00  -8.6008557998769064e-01 2.0030453527847963e-03 0.0000000000000000e+00  -5.0540139189089384e-01 -7.6258417042796012e-04 0.0000000000000000e+00  -7.6558851348920853e-01 -5.5964229125327059e-04 0.0000000000000000e+00  -8.6246290431767558e-01 2.9040426551586451e-03 0.0000000000000000e+00  -3.1599844037679053e-01 -1.0567372179690615e-03 0.0000000000000000e+00  -1.9333282114710532e-01 -4.2428807351058417e-03 0.0000000000000000e+00  -8.4353347633406628e-01 -2.1467679937774431e-03 0.0000000000000000e+00  -9.3674587461243131e-01 8.5207760223499074e-04 0.0000000000000000e+00  -8.8680739789722729e-01 -6.5838086825395492e-04 0.0000000000000000e+00  -9.0881404839904523e-01 -8.6830555304873158e-04 0.0000000000000000e+00  -4.0524207763026993e-01 3.9063214344243202e-03 0.0000000000000000e+00  -9.9980049854159470e-01 1.6010711267150368e-04 0.0000000000000000e+00  -6.4851212133619496e-01 1.5906835366339966e-03 0.0000000000000000e+00  -5.3322309043708094e-01 -3.1419816434661435e-03 0.0000000000000000e+00  -6.0317498171204531e-01 -2.6506987508062713e-03 0.0000000000000000e+00  -6.1514978067711634e-01 -2.3508457811740602e-03 0.0000000000000000e+00  -6.5493596311455915e-01 -4.3455196383301864e-03 0.0000000000000000e+00  -8.6757551209479733e-01 1.4037086282315814e-03 0.0000000000000000e+00  -8.8286275081413312e-01 -2.3243433578039319e-03 0.0000000000000000e+00  -9.3241892087803924e-01 -8.3445804395469031e-04 0.0000000000000000e+00  -9.7017373813347851e-01 -6.5217429843818231e-04 0.0000000000000000e+00  -2.5526640597522526e-01 1.5678194866363959e-03 0.0000000000000000e+00  -3.4935480304131633e-01 1.8998705974724284e-03 0.0000000000000000e+00  -3.1257616101626506e-01 -1.7085735838202609e-03 0.0000000000000000e+00  -9.5689771142840885e-01 8.2023533139713445e-04 0.0000000000000000e+00  -9.5908367848636666e-01 -2.2450961144233200e-04 0.0000000000000000e+00  -7.9652700105157481e-01 -3.0828899176321978e-03 0.0000000000000000e+00  -5.4102556