<?xml version="1.0"?>
<VTKFile type="UnstructuredGrid"  version="0.1"  >
<UnstructuredGrid>
<Piece  NumberOfPoints="1385" NumberOfCells="2640">
<Points>
<DataArray  type="Float64"  NumberOfComponents="3"  format="ascii">0 0 0  1 0 0  1 1 0  0 1 0  0.5 0 0  1 0.5 0  0.5 1 0  0 0.5 0  0.5 0.5 0  0 0.25 0  0.25 0 0  0.25 1 0  0 0.75 0  1 0.25 0  0.75 0 0  1 0.75 0  0.75 1 0  0.7083333333333333 0.2916666666666667 0  0.2916666666666666 0.7083333333333334 0  0.375 0.25 0  0.75 0.625 0  0.2569444444444444 0.4652777777777778 0  0.5366379310344828 0.7535919540229885 0  0.1875 0.1875 0  0.8125 0.8125 0  0.869047619047619 0.375 0  0.1450441919191919 0.6052714646464646 0  0.375 0.8690476190476191 0  0.5526960784313725 0.1825980392156862 0  0.8385416666666666 0.1614583333333334 0  0.1614583333333333 0.8385416666666667 0  0.6736111111111112 0.4652777777777778 0  0.1367521367521368 0.3477564102564102 0  0.6570970491253563 0.8648656830417855 0  0.5102479397556124 0.3386260301221938 0  0.3654513888888889 0.5737847222222222 0  0.6929750044954185 0.1362784921584263 0  0.388576102743835 0.411911725237599 0  0.6091269841269842 0.5942460317460317 0  0.875 0.6875 0  0.427278890279516 0.119889445139758 0  0.8544456845238095 0.5213913690476191 0  0.125 0 0  0 0.125 0  1 0.875 0  0.875 1 0  0.1280008648150532 0.4769292340226777 0  0.2695382451711197 0.3321750950221553 0  0.7031567235715964 0.7447810921428012 0  0.625 0 0  0.375 0 0  0.125 1 0  0.875 0 0  0 0.375 0  0 0.625 0  1 0.375 0  0.375 1 0  1 0.125 0  0 0.875 0  0.625 1 0  1 0.625 0  0.2979288363930608 0.1201429454643536 0  0.410919540229885 0.7484605911330049 0  0.5325041980395562 0.878905151526474 0  0.4831670727569156 0.6331060043826487 0  0.1735997378973042 0.7204747378973043 0  0.2534919507575758 0.5772372159090909 0  0.2633928571428572 0.8876488095238095 0  0.8199404761904761 0.2730654761904762 0  0.75830270586982 0.3919383189517417 0  0.5750282248382511 0.4237522353023667 0  0.6008360210023379 0.2794828358598495 0  0.08163442644334186 0.6821295860397322 0  0.08333333333333333 0.1875 0  0.2028380815996574 0.08844602719988583 0  0.2766521142611967 0.2325436572164097 0  0.90625 0.78125 0  0.890625 0.890625 0  0.7545696325008384 0.8973565441669461 0  0.5625 0.08086590340834317 0  0.09077380952380953 0.09077380952380952 0  0.4610923478694773 0.209034015149656 0  0.7542527598351648 0.5248380520595106 0  0.6459235536037465 0.3619913988405765 0  0.7560381768882634 0.20506142233852 0  0.07073252688172042 0.8125 0  0.0924753097241701 0.9078102849914793 0  0.9292674731182795 0.1875 0  0.9075246902758297 0.09218971500852073 0  0.8125 0.07073252688172045 0  0.2400955776842301 0.7869705776842302 0  0.9121050213379069 0.2781978201831695 0  0.7916878157143976 0.7239689078571988 0  0.9345238095238094 0.4375 0  0.4375 0.9345238095238095 0  0.3725616989755203 0.6651895248862173 0  0.06536271996350887 0.5625 0  0.9348362560379583 0.5625 0  0.456646798987055 0.8277247094351965 0  0.1875 0.9355758238725954 0  0.6169761231634859 0.6939779188977889 0  0.6226854751147515 0.7827911461419014 0  0.3305695598137626 0.7901697871282585 0  0.5865305325818898 0.5101085479043448 0  0.6622701297028378 0.2177663989757395 0  0.1354166666666667 0.2591702279202279 0  0 0.3125 0  0.2094429575680048 0.3936361846162499 0  0.836666296419157 0.607917407161686 0  0.6875 1 0  0.214261555450504 0.6492551722020035 0  0 0.4375 0  0.07731537126068377 0.40625 0  0.3427725432967068 0.4879566233699599 0  0.3550792513951871 0.3331953632609953 0  0.4462473953896857 0.2887834789342508 0  0.4747801464819794 0.417386052030127 0  0.8229836475148948 0.4443292349237342 0  0.7322605135514757 0.8199240278289671 0  0.6756431877205955 0.5468989748126787 0  0.1968419507215863 0.5194573482612496 0  0.3285590277777778 0.9345238095238095 0  0.8125 1 0  0.4198917601920009 0.5134893045331258 0  0.5232405503206691 0.2595791787880157 0  1 0.9375 0  0.1987510870015086 0.3025185951894431 0  0.5625 1 0  0.6005390654136388 0.9228110509230952 0  0.6411254848194414 0.07704872765442942 0  0.3357233162523242 0.1855113224530532 0  0.6730653396610877 0.6393887462324165 0  0.310966987234063 0.6240019765311626 0  0.7368737836204349 0.07457755202327881 0  0.6192316414418171 0.1485238406378594 0  0.5432429670607106 0.678552703844006 0  0.4754371679695679 0.7103946803120881 0  0.07501324890749672 0.3043839897335739 0  0.5358146975860403 0.5688321463205916 0  0.3115271739500156 0.3982137365971444 0  0.3625191397122174 0.0767854603650549 0  0.5024029442563831 0.1264128223758444 0  0.4375 0 0  0.4699946908887376 0.06379961173775725 0  0.9375 0.71875 0  0.9272105898044465 0.635671179608893 0  0.9375 1 0  0.6690971819568612 0.9331530898202766 0  0.1073454944778885 0.7499206387638554 0  0.8699082999280406 0.2232403652524313 0  0.5773118091863964 0.3548027349159383 0  0.1354166666666667 0.1428571428571428 0  0.3125 0 0  0.8241684193077341 0.9257452995055244 0  0.4352314948354036 0.3586940847489378 0  0.4351301473778832 0.5819726043539077 0  0.8073232928518163 0.3419398170341962 0  0.7775949246947366 0.1298519409204575 0  0.6875 0 0  0.7413513991851041 0.457933324954483 0  0.939453125 0.841796875 0  0.5630355154606987 0.8171875156478349 0  0.9345238095238095 0.3461466592368577 0  0.9375 0 0  1 0.0625 0  0.0625 1 0  0 0.9375 0  0.06552178593177167 0.4969053669623468 0  0.1424866619031703 0.4130277709291224 0  0.1275287182444726 0.5422946908002588 0  0.2637686595586339 0.06413888464529549 0  0.2524263535491086 0.1697437503243817 0  0.7367218397988525 0.6888573970660841 0  0.0625 0 0  0 0.0625 0  0.8463594539285995 0.7578283617857982 0  0.3128751192101563 0.2851997374369947 0  0.4015281788351144 0.1806421385113692 0  0.1910251795116588 0.4553332197174453 0  0.287797471442006 0.5222621440543902 0  0.3962628745986055 0.8097380085535307 0  0.3505895299554843 0.7304878890838692 0  0.5019151500495276 0.9356042615328103 0  0.9374389419410134 0.4999931039076005 0  0.3125 1 0  0.1875 1 0  1 0.5625 0  0.4375 1 0  1 0.3125 0  1 0.4375 0  0.8125 0 0  1 0.1875 0  0.5625 0 0  0.1875 0 0  0 0.1875 0  0 0.5625 0  0 0.6875 0  0 0.8125 0  1 0.6875 0  1 0.8125 0  0.8021696218581627 0.6612893947866073 0  0.06154922295426143 0.6239401126946708 0  0.9359375 0.9359375 0  0.4666158024849896 0.7691515918155014 0  0.2318201265217025 0.7064974250277525 0  0.1565954253579966 0.6635489312486841 0  0.1598132503680848 0.7787147500325552 0  0.3146529991605639 0.8510876378205265 0  0.1461873209418733 0.05982804528877814 0  0.06109554988524315 0.2446551776247686 0  0.8054950308560754 0.5564226538848541 0  0.470541749491976 0.8853316336952531 0  0.6948472567465137 0.4042308563372457 0  0.8802828472348889 0.4658893256343853 0  0.6788075634946739 0.7974194205806069 0  0.2155048659603867 0.2428201584940968 0  0.8131223143423806 0.2132171049028394 0  0.4330798005432235 0.6671274900735726 0  0.6015279126162613 0.2187368078743274 0  0.8061636571464289 0.8703766630361714 0  0.7008230445061776 0.3478568388444072 0  0.8638466246958771 0.3147095987735538 0  0.204801534004265 0.8789209409594009 0  0.2449006736431132 0.9424182882803838 0  0.7611268409371427 0.2643056884799992 0  0.7552800864046191 0.7678006649959446 0  0.5983639638906616 0.864113435029236 0  0.1956559506814437 0.577281203577426 0  0.3527670268164207 0.1320469097565204 0  0.7530364577483248 0.3262386077083089 0  0.4535919187979363 0.4690107087451527 0  0.8824869791666666 0.8336588541666666 0  0.8814453125 0.9451171875 0  0.5582987942628019 0.622421666543858 0  0.6817532446064828 0.6939001801354731 0  0.3830295138888889 0.9450968952922078 0  0.4140603937012541 0.05211333372716105 0  0.5535864501303013 0.3060591985391672 0  0.6560130086346878 0.2729726562211558 0  0.890203140221684 0.5948314305427268 0  0.7043857725999024 0.593980890020804 0  0.5105843922695152 0.8016828014338627 0  0.05365910753708378 0.7315110031682004 0  0.616904573672261 0.4621186633436136 0  0.5338511646455415 0.387875898899613 0  0.5231769258947843 0.4477682463140762 0  0.650302973237622 0.7370722302085519 0  0.3927483139621257 0.4662414504529014 0  0.8034595960585199 0.4972538342758211 0  0.7738337841682438 0.9496376207663251 0  0.7193737507158268 0.954685447650112 0  0.482525916480686 0.5528257169991676 0  0.2533501157346781 0.2809495420003238 0  0.3118487924482243 0.5702930126570319 0  0.6257598847669529 0.4104163315430518 0  0.1354166666666667 0.1955605158730158 0  0.04166666666666666 0.15625 0  0.3956448985530264 0.6174149462065157 0  0.8102897701818546 0.3938784238208349 0  0.2641154190013625 0.8344469561943118 0  0.642852220770013 0.5068794586563659 0  0.05271458179508221 0.355846947336007 0  0.7021551360070266 0.8921457280225779 0  0.5692125776683765 0.1328512638850284 0  0.5206162811937602 0.04865158770992991 0  0.6001838442201555 0.04540556991297563 0  0.2597716608242787 0.4118346398477178 0  0.4040584599473195 0.3179589136784675 0  0.1480337679295207 0.8941560631483065 0  0.1344356707112281 0.9466251177415842 0  0.7114696411829317 0.4983917389078826 0  0.7585704698442475 0.5751926345944629 0  0.2189131956390871 0.04022068508159698 0  0.2476935455192043 0.1123642267635843 0  0.185995005654517 0.1365524537205238 0  0.6223414373308711 0.643380839165121 0  0.5732602596637543 0.7190051747306219 0  0.268358222364537 0.6586246524467934 0  0.3265879848129173 0.2369791782191225 0  0.1267095595787346 0.7034787238999181 0  0.1115202922226038 0.6421997933884982 0  0.3128688392940203 0.07260997451790079 0  0.550724900485678 0.9253360991633187 0  0.7142608810459105 0.2384904702214873 0  0.7045869185243887 0.1871826897887429 0  0.890625 0.734375 0  0.953125 0.765625 0  0.2111812642821677 0.8286209446459138 0  0.9590293078204457 0.09375 0  0.953431269039847 0.1435719386408004 0  0.04097069217955424 0.90625 0  0.04656873096015299 0.8564280613591996 0  0.1078743037981226 0.8541621766048062 0  0.8921256962018773 0.1458378233951939 0  0.8521576979194619 0.1084496634207678 0  0.8655663982740958 0.05464346096571447 0  0.04005659640905543 0.09375 0  0.1001448316533417 0.04246776244228261 
[...]
<PointData  Vectors="f_8394-0-1"> 
<DataArray  type="Float64"  Name="f_8394-0-1"  NumberOfComponents="3" format="ascii">4.2193404737234756e-03 -1.7483773279483288e-02 0.0000000000000000e+00  1.4808386820568831e-03 -8.4211275453774648e-01 0.0000000000000000e+00  2.3941949780528437e-03 -9.1337543935562693e-01 0.0000000000000000e+00  1.1612086412478122e-05 -8.4558600971132636e-01 0.0000000000000000e+00  3.0521705042098890e-03 -4.8572434698767852e-01 0.0000000000000000e+00  -1.3749052915734694e-04 -9.9694126738279065e-01 0.0000000000000000e+00  9.7593352969216340e-05 -9.9792923651857823e-01 0.0000000000000000e+00  5.2711391853065837e-03 -4.8445464150994694e-01 0.0000000000000000e+00  -2.1254178613464292e-03 -8.3676729254041016e-01 0.0000000000000000e+00  1.6756439307745014e-03 -2.5580620099444751e-01 0.0000000000000000e+00  4.0927538255482454e-03 -2.5501015835524304e-01 0.0000000000000000e+00  -9.8323226556190635e-04 -9.4624693967773288e-01 0.0000000000000000e+00  1.0316435151704255e-03 -6.8654756573020193e-01 0.0000000000000000e+00  -1.7681185782159048e-03 -9.4623484242930844e-01 0.0000000000000000e+00  -1.6309827201586580e-03 -6.7459132843071590e-01 0.0000000000000000e+00  1.0642045891228191e-03 -9.8557444542142347e-01 0.0000000000000000e+00  6.4392423330868892e-04 -9.8392299832231023e-01 0.0000000000000000e+00  1.2878815973587088e-03 -8.4640116805080368e-01 0.0000000000000000e+00  3.3738513222361100e-03 -8.4581592223201341e-01 0.0000000000000000e+00  -2.2243895991317930e-03 -5.8025017969763204e-01 0.0000000000000000e+00  -7.7332007443287054e-04 -9.7987227364136753e-01 0.0000000000000000e+00  5.5667494891498137e-07 -6.5527183847489257e-01 0.0000000000000000e+00  1.0040157310764464e-03 -9.6383882795267151e-01 0.0000000000000000e+00  -4.1064830458823337e-03 -3.5811457712336381e-01 0.0000000000000000e+00  3.1763097292270004e-04 -9.9875835967891702e-01 0.0000000000000000e+00  8.5596628545628328e-04 -9.5081944352808001e-01 0.0000000000000000e+00  -1.5186222323671228e-03 -6.7521211329673192e-01 0.0000000000000000e+00  8.2525359822016586e-04 -9.5017892838640639e-01 0.0000000000000000e+00  3.0522229303829862e-03 -6.6894760475269044e-01 0.0000000000000000e+00  -1.7581958051264279e-03 -8.4673941526133545e-01 0.0000000000000000e+00  -2.2830639839612199e-03 -8.3798834248658649e-01 0.0000000000000000e+00  4.1007007640141147e-04 -9.1252615229180833e-01 0.0000000000000000e+00  -1.3596706366048039e-03 -4.7052686167692659e-01 0.0000000000000000e+00  1.9914978694901553e-04 -9.9916282679996882e-01 0.0000000000000000e+00  -4.3604413776163198e-03 -7.4605273703608799e-01 0.0000000000000000e+00  1.3169325580582036e-03 -8.1277150235909934e-01 0.0000000000000000e+00  -2.2456000220905104e-03 -7.3208211636018927e-01 0.0000000000000000e+00  -1.8149365602320167e-03 -7.1405635287432978e-01 0.0000000000000000e+00  -8.2406459430391099e-04 -9.3305224052009295e-01 0.0000000000000000e+00  -6.5732685712527328e-05 -9.9997769721227092e-01 0.0000000000000000e+00  4.4785181428219634e-03 -5.2873285306005402e-01 0.0000000000000000e+00  3.4714656743073391e-04 -9.8270927043426015e-01 0.0000000000000000e+00  4.6033131147999139e-03 -1.2716499438883480e-01 0.0000000000000000e+00  -1.1196186064827167e-04 -1.3076487830422717e-01 0.0000000000000000e+00  1.9285751982505150e-03 -9.5677833168987481e-01 0.0000000000000000e+00  1.1178561388462405e-03 -9.5565029655703893e-01 0.0000000000000000e+00  3.1413027490652667e-03 -5.7442429473521583e-01 0.0000000000000000e+00  -4.2333546055197679e-03 -5.5892804324078627e-01 0.0000000000000000e+00  -3.9050868436155128e-04 -9.9125873940248888e-01 0.0000000000000000e+00  1.8518471046889418e-03 -5.9090592112452023e-01 0.0000000000000000e+00  5.9381364217060972e-03 -3.6870483468481330e-01 0.0000000000000000e+00  -2.2990498720320551e-03 -9.0062393096473770e-01 0.0000000000000000e+00  3.4034411461312253e-03 -7.7019430987515802e-01 0.0000000000000000e+00  5.7666752972960200e-03 -3.7656136203574658e-01 0.0000000000000000e+00  1.6711698655545333e-03 -5.9055883100649065e-01 0.0000000000000000e+00  -1.2610730425314243e-03 -9.7902999156823367e-01 0.0000000000000000e+00  1.4971884466970231e-04 -9.8310933314691251e-01 0.0000000000000000e+00  -2.5581277352372256e-03 -8.9939265596808782e-01 0.0000000000000000e+00  2.8773144300380249e-03 -7.7235861429370078e-01 0.0000000000000000e+00  1.1360870214172092e-04 -9.9881570495442051e-01 0.0000000000000000e+00  2.6806229001097304e-04 -9.9875774795937100e-01 0.0000000000000000e+00  4.3084460984885442e-03 -4.1633341823399728e-01 0.0000000000000000e+00  -1.0067657981897571e-03 -9.1475990329608392e-01 0.0000000000000000e+00  -1.0117567408172712e-03 -9.8685237082574495e-01 0.0000000000000000e+00  -2.1102683419615270e-03 -8.9566344491279493e-01 0.0000000000000000e+00  2.2060239178773589e-03 -7.8438073387038720e-01 0.0000000000000000e+00  5.1445185306761010e-03 -7.4101098635751494e-01 0.0000000000000000e+00  -2.0471135749748903e-03 -9.0858637149555022e-01 0.0000000000000000e+00  -8.0288691917290711e-04 -8.8300501824641420e-01 0.0000000000000000e+00  1.1652756369618933e-03 -9.1619849265611042e-01 0.0000000000000000e+00  2.5807356275892035e-03 -8.4549624923699529e-01 0.0000000000000000e+00  7.2187089887376654e-04 -7.7700506887682042e-01 0.0000000000000000e+00  -3.7067739146498524e-03 -6.8615367135162786e-01 0.0000000000000000e+00  -4.1780227404466103e-03 -2.6626862692091857e-01 0.0000000000000000e+00  -3.9288535637558575e-03 -2.7867688960946424e-01 0.0000000000000000e+00  3.0739256930038678e-03 -4.9220233690510456e-01 0.0000000000000000e+00  7.8013843437232944e-04 -9.9225299689477398e-01 0.0000000000000000e+00  4.4694515950016722e-04 -9.7972874812126143e-01 0.0000000000000000e+00  2.5072948120073019e-04 -9.9649152678649977e-01 0.0000000000000000e+00  -2.5557438709426922e-03 -6.0082368586416990e-01 0.0000000000000000e+00  4.3126610480368303e-03 -1.7458272865684177e-01 0.0000000000000000e+00  -8.6240203724445574e-04 -6.1467231867888084e-01 0.0000000000000000e+00  5.8138534471408043e-04 -9.6015119359504753e-01 0.0000000000000000e+00  -2.5815441160842723e-03 -8.4763570080428474e-01 0.0000000000000000e+00  -2.3372250432347752e-03 -8.1490555260914632e-01 0.0000000000000000e+00  7.5974695551686566e-04 -7.7983634094098664e-01 0.0000000000000000e+00  -1.2570593523199003e-03 -8.3675248212506281e-01 0.0000000000000000e+00  1.4059878424174527e-03 -9.0332207077577975e-01 0.0000000000000000e+00  -2.4259899450069788e-03 -8.4177265118813860e-01 0.0000000000000000e+00  3.7798526730225546e-03 -7.7526680543103632e-01 0.0000000000000000e+00  -1.8084486492570689e-03 -8.5148537654176815e-01 0.0000000000000000e+00  -1.2312853843090554e-03 -9.2664626291755137e-01 0.0000000000000000e+00  2.0355445504990910e-04 -9.9914207133916833e-01 0.0000000000000000e+00  6.0936895557389681e-04 -9.8207046694043942e-01 0.0000000000000000e+00  3.6150845414717470e-04 -9.8185691138374398e-01 0.0000000000000000e+00  -2.3691740582100218e-03 -8.5728263432725205e-01 0.0000000000000000e+00  -2.5788387014220003e-03 -5.8105170003447093e-01 0.0000000000000000e+00  1.7619255349166085e-04 -9.9807313260388097e-01 0.0000000000000000e+00  1.5717696989520080e-04 -9.5807844683450405e-01 0.0000000000000000e+00  -1.9466666070729888e-03 -8.9851588693860773e-01 0.0000000000000000e+00  -1.5014174083680387e-03 -9.6430689873507958e-01 0.0000000000000000e+00  -5.0331004281600755e-04 -9.8493798331596993e-01 0.0000000000000000e+00  2.0550739115080818e-03 -9.0311548733746516e-01 0.0000000000000000e+00  7.4510989401127548e-04 -8.9358227807790580e-01 0.0000000000000000e+00  -3.5846984375603741e-03 -7.6813445046992501e-01 0.0000000000000000e+00  3.6377155204453948e-03 -3.9050117019516156e-01 0.0000000000000000e+00  5.7387029020380675e-03 -3.1354193983582124e-01 0.0000000000000000e+00  4.2632373916567934e-03 -5.7461776656219954e-01 0.0000000000000000e+00  -1.6134109034923738e-04 -9.9250634203845478e-01 0.0000000000000000e+00  6.2447250693109524e-04 -9.9342373024575092e-01 0.0000000000000000e+00  7.3087715823982879e-05 -7.5526580787535602e-01 0.0000000000000000e+00  -2.6246477832743099e-03 -4.2694037931583223e-01 0.0000000000000000e+00  -4.1088611057624180e-04 -4.7295262652084236e-01 0.0000000000000000e+00  -1.5352211942138427e-03 -7.3131512868102089e-01 0.0000000000000000e+00  2.6712725480519950e-03 -6.4174875430645972e-01 0.0000000000000000e+00  1.9185164893490425e-03 -6.7933516648587577e-01 0.0000000000000000e+00  1.0144387965650425e-03 -7.8496491617316710e-01 0.0000000000000000e+00  -5.0346001455906300e-04 -9.5103734747780011e-01 0.0000000000000000e+00  1.0946041070769574e-06 -1.0000073656156252e+00 0.0000000000000000e+00  1.2609349408193582e-03 -9.4264855456230978e-01 0.0000000000000000e+00  3.6931397199522764e-03 -6.6270684529989021e-01 0.0000000000000000e+00  -2.0415270544408282e-03 -9.5006207427967626e-01 0.0000000000000000e+00  9.4995289853867793e-04 -9.7111434556590726e-01 0.0000000000000000e+00  2.3935126574471388e-03 -8.0414121322863474e-01 0.0000000000000000e+00  -2.6650850648229918e-03 -7.0044927213237385e-01 0.0000000000000000e+00  2.2483788281045802e-03 -9.3678973911193963e-01 0.0000000000000000e+00  3.4781061384188891e-03 -4.8830103664894953e-01 0.0000000000000000e+00  -8.0705251325014112e-05 -9.9987705328087739e-01 0.0000000000000000e+00  2.4479993919586385e-05 -9.9869253881970432e-01 0.0000000000000000e+00  1.2760554640142419e-03 -6.6389310553229697e-01 0.0000000000000000e+00  -3.6997167459794367e-03 -4.8697196605722748e-01 0.0000000000000000e+00  -1.0664086733693789e-03 -9.6459427313600421e-01 0.0000000000000000e+00  -1.5038094590571482e-03 -7.9825208277794690e-01 0.0000000000000000e+00  4.2025309166117131e-03 -7.3088949506124667e-01 0.0000000000000000e+00  2.3235711521039093e-03 -7.0111781491472103e-01 0.0000000000000000e+00  1.1824667782359133e-03 -9.4309681663850342e-01 0.0000000000000000e+00  1.9236993871025315e-03 -9.3066239994461497e-01 0.0000000000000000e+00  3.2639651265498337e-03 -3.7877911036983247e-01 0.0000000000000000e+00  8.9900990829148378e-04 -8.8974536545383864e-01 0.0000000000000000e+00  2.6855304948451286e-03 -6.5818128904347395e-01 0.0000000000000000e+00  -4.3686499078194330e-03 -4.2081848853686554e-01 0.0000000000000000e+00  2.6927617862610026e-03 -5.9448606123715353e-01 0.0000000000000000e+00  4.3952488128672917e-03 -4.2760688042505218e-01 0.0000000000000000e+00  -4.1299348282988202e-03 -5.0123826881022737e-01 0.0000000000000000e+00  2.0168271079550742e-04 -9.9719367433864314e-01 0.0000000000000000e+00  -8.2569544458510613e-05 -1.0000045044142751e+00 0.0000000000000000e+00  -3.1099018130657796e-04 -9.2923249343838776e-01 0.0000000000000000e+00  -2.1109248808182102e-04 -9.9914641668119353e-01 0.0000000000000000e+00  -3.5210944903574237e-03 -7.4936296122139101e-01 0.0000000000000000e+00  -1.5473262351384243e-03 -8.8307314343606103e-01 0.0000000000000000e+00  8.8926970004576944e-04 -8.0863171942058942e-01 0.0000000000000000e+00  2.7169784593450430e-04 -2.8258374029042171e-01 0.0000000000000000e+00  3.0701257375374824e-03 -3.1381018090794888e-01 0.0000000000000000e+00  -1.0363655933486038e-03 -9.8514697067381318e-01 0.0000000000000000e+00  2.1917769536479170e-03 -7.1903551917959363e-01 0.0000000000000000e+00  3.1106149346130652e-03 -8.5286250939571828e-01 0.0000000000000000e+00  7.5410754185566142e-04 -9.1680333050245988e-01 0.0000000000000000e+00  2.9587099620689838e-03 -7.9099576314995823e-01 0.0000000000000000e+00  2.4431319857315947e-03 -6.4068450061493309e-01 0.0000000000000000e+00  -7.2035555862633854e-04 -9.2852743997100429e-01 0.0000000000000000e+00  -7.5524552142230972e-04 -9.7570156341653158e-01 0.0000000000000000e+00  -1.1907200897343095e-03 -9.8087134527986708e-01 0.0000000000000000e+00  -1.5372323048979397e-03 -9.5669913041900578e-01 0.0000000000000000e+00  3.2601671405483312e-03 -8.0891293493980720e-01 0.0000000000000000e+00  -2.1184640050572190e-03 -8.6949626503815558e-01 0.0000000000000000e+00  -2.7302680261486745e-03 -8.7230182342418094e-01 0.0000000000000000e+00  3.5632665710341521e-04 -8.0981029773053181e-01 0.0000000000000000e+00  -2.1519558459335286e-03 -5.2626143024763350e-01 0.0000000000000000e+00  -6.7192680028571594e-04 -5.2044020491073639e-01 0.0000000000000000e+00  -2.3503870870839050e-03 -6.1147381954075497e-01 0.0000000000000000e+00  2.5028338845344555e-03 -3.3148519471020355e-01 0.0000000000000000e+00  3.8785859041518544e-03 -4.1961203073903464e-01 0.0000000000000000e+00  1.3607600124609931e-04 -9.9135871741569193e-01 0.0000000000000000e+00  4.9033600780114921e-03 -6.6767115848527278e-02 0.0000000000000000e+00  -3.0693064399720275e-04 -6.7587773773317275e-02 0.0000000000000000e+00  1.2894388671635948e-04 -9.9977124191729350e-01 0.0000000000000000e+00  -5.2763238477610275e-03 -5.5657102789431279e-01 0.0000000000000000e+00  1.1736176113976426e-03 -5.5906203827619128e-01 0.0000000000000000e+00  -4.6995639478903950e-03 -5.9824558071676970e-01 0.0000000000000000e+00  -3.0973232151156882e-03 -7.1913197220891867e-01 0.0000000000000000e+00  -1.6084686242251456e-03 -9.3054819773352060e-01 0.0000000000000000e+00  2.7767933666444922e-04 -8.8743646011931809e-01 0.0000000000000000e+00  -6.0833272504212665e-04 -9.9004293065751470e-01 0.0000000000000000e+00  5.3641206161556682e-04 -9.9221204675203944e-01 0.0000000000000000e+00  -5.9737058598699488e-04 -9.6490548489062655e-01 0.0000000000000000e+00  -2.0793637100021412e-03 -9.2519375930535586e-01 0.0000000000000000e+00  -1.8756901872052302e-04 -9.9995188273410285e-01 0.0000000000000000e+00  1.7120788975935608e-04 -9.9267824799442261e-01 0.0000000000000000e+00  -1.4788459733030557e-03 -9.6486181061129828e-01 0.0000000000000000e+00  -5.6361693554984882e-04 -9.8973639415357817e-01 0.0000000000000000e+00  2.2765424135263151e-03 -7.3098397765562595e-01 0.0000000000000000e+00  -1.8862125848603251e-03 -9.2417494355297969e-01 0.0000000000000000e+00  5.1933700011677353e-03 -5.3673167730205862e-01 0.0000000000000000e+00  2.9376929678864433e-03 -1.9440233857977143e-01 0.0000000000000000e+00  2.4438064519544749e-03 -1.9345744165769302e-01 0.0000000000000000e+00  -2.3134069479270537e-04 -5.4274950648402842e-01 0.0000000000000000e+00  -1.6575368735587039e-03 -6.3519699888779535e-01 0.0000000000000000e+00  2.5268556967129596e-03 -7.3352602244667631e-01 0.0000000000000000e+00  6.4858319221083871e-04 -9.9376753310009724e-01 0.0000000000000000e+00  -4.9198305943333367e-04 -9.7281836082939022e-01 0.0000000000000000e+00  4.2092273856320084e-04 -9.9531023106732652e-01 0.0000000000000000e+00  -3.1110889646689122e-04 -6.2333561355565303e-01 0.0000000000000000e+00  -8.8835222758949783e-04 -9.5200869365308649e-01 0.0000000000000000e+00  1.0756841668490003e-03 -9.4786545114773046e-01 0.0000000000000000e+00  3.6468172109522246e-03 -8.1001510725048576e-01 0.0000000000000000e+00  -3.0229329636621838e-03 -7.2433078526460293e-01 0.0000000000000000e+00  -5.2719868572931317e-04 -8.0327071686582197e-01 0.0000000000000000e+00  1.9070445249365908e-03 -9.2097690095958340e-01 0.0000000000000000e+00  4.4590550665122713e-03 -2.1162037141105183e-01 0.0000000000000000e+00  -5.2636367599133704e-03 -2.9741633888854924e-01 0.0000000000000000e+00  5.0490975389638759e-04 -9.8005266366475907e-01 0.0000000000000000e+00  1.2204323138597650e-03 -9.7732607455204512e-01 0.0000000000000000e+00  -9.7543179992634621e-04 -8.9332159603349592e-01 0.0000000000000000e+00  5.7388330374930074e-04 -9.7714012724248167e-01 0.0000000000000000e+00  -3.2918767426792783e-04 -9.9500829483089792e-01 0.0000000000000000e+00  2.9810694570907570e-03 -4.5050122264530218e-01 0.0000000000000000e+00  2.5984636846231868e-03 -8.5704092719166358e-01 0.0000000000000000e+00  3.8581681166138804e-03 -8.9202983814084913e-01 0.0000000000000000e+00  -4.4299871656159479e-04 -7.3774979699740528e-01 0.0000000000000000e+00  -4.9693672215733731e-04 -9.9362229546605341e-01 0.0000000000000000e+00  1.1217605558659707e-03 -8.7192036280062790e-01 0.0000000000000000e+00  1.4231870852086676e-03 -9.2703021303397704e-01 0.0000000000000000e+00  1.2651720017414214e-03 -8.8842243020685829e-01 0.0000000000000000e+00  1.0842563478327127e-03 -9.2992748763894417e-01 0.0000000000000000e+00  -2.6410835473751892e-03 -8.5170843367771509e-01 0.0000000000000000e+00  2.5592869110457883e-04 -9.9922177546711688e-01 0.0000000000000000e+00  -3.2187059121779882e-04 -9.9325596650133785e-01 0.0000000000000000e+00  1.4196475755120785e-03 -6.9615968000310702e-01 0.0000000000000000e+00  3.6782394703790411e-03 -4.7288988835639423e-01 0.0000000000000000e+00  2.4282018568977382e-04 -8.7636775955649959e-01 0.0000000000000000e+00  2.2502149315757336e-03 -8.0170750875088959e-01 0.0000000000000000e+00  -6.5028691772316127e-04 -9.9011907425246271e-01 0.0000000000000000e+00  1.0112770383565728e-03 -9.7021335044037516e-01 0.0000000000000000e+00  -2.4490412620502555e-03 -9.2158518506613785e-01 0.0000000000000000e+00  -7.6168652653435531e-04 -9.8268701799180624e-01 0.0000000000000000e+00  8.4201978966347291e-04 -9.7267390912716145e-01 0.0000000000000000e+00  1.7418319249872805e-03 -4.5888662162867877e-01 0.0000000000000000e+00  1.6620047021378426e-03 -7.6301512195392429e-01 0.0000000000000000e+00  4.4734870719439490e-03 -8.0091908397095002e-01 0.0000000000000000e+00  3.3801357846785507e-04 -9.9686441852511964e-01 0.0000000000000000e+00  6.4822306731449064e-04 -9.6603251713326177e-01 0.0000000000000000e+00  -9.3171655552959365e-04 -9.6455692865369846e-01 0.0000000000000000e+00  2.2799045520905253e-03 -7.1267321779583082e-01 0.0000000000000000e+00  1.0884222862274223e-03 -8.8546549620496418e-01 0.0000000000000000e+00  -3.4986363264911391e-03 -7.9175273366893617e-01 0.0000000000000000e+00  -2.0817375748485301e-03 -8.1983029876748581e-01 0.0000000000000000e+00  -6.4865840269888865e-04 -9.8139058026860093e-01 0.0000000000000000e+00  1.4179761323993012e-03 -7.6333073427405129e-01 0.0000000000000000e+00  1.2767907234737530e-03 -9.6680840474853869e-01 0.0000000000000000e+00  2.1476066479197975e-04 -9.8748815457630768e-01 0.0000000000000000e+00  8.1748887941796022e-05 -9.9401442197942447e-01 0.0000000000000000e+00  2.2742972029767827e-03 -8.6461779780864056e-01 0.0000000000000000e+00  -1.2821725726520905e-03 -5.1498556220962965e-01 0.0000000000000000e+00  -5.6025079631352205e-05 -7.6641467160452081e-01 0.0000000000000000e+00  2.2918786288508297e-03 -8.6521614310042305e-01 0.0000000000000000e+00  2.0238232018800900e-04 -3.1430702296967472e-01 0.0000000000000000e+00  -5.6639114540646407e-03 -1.8807824526939579e-01 0.0000000000000000e+00  -2.1406529937461338e-03 -8.5141446586182323e-01 0.0000000000000000e+00  1.0675352729447862e-03 -9.3641451348375615e-01 0.0000000000000000e+00  -1.4129997698301977e-04 -8.8756936104473483e-01 0.0000000000000000e+00  -6.9090601789682793e-04 -9.0875037529042213e-01 0.0000000000000000e+00  3.5255062315356633e-03 -4.0361550730944146e-01 0.0000000000000000e+00  9.3226820458536253e-05 -9.9989380399347583e-01 0.0000000000000000e+00  7.7276817340177217e-04 -6.4149202297972119e-01 0.0000000000000000e+00  -3.1949350494896445e-03 -5.3209775972431639e-01 0.0000000000000000e+00  -3.3511641488685462e-03 -5.9433515741700504e-01 0.0000000000000000e+00  -2.3043189182837265e-03 -6.1326412647237860e-01 0.0000000000000000e+00  -4.8505642974067120e-03 -6.6231242613633179e-01 0.0000000000000000e+00  1.4583762994151567e-03 -8.6798518988897888e-01 0.0000000000000000e+00  -2.3382699571968812e-03 -8.7808638281684170e-01 0.0000000000000000e+00  -5.4621002499732896e-04 -9.3287667921561024e-01 0.0000000000000000e+00  -7.1491434000731102e-04 -9.7053256181365044e-01 0.0000000000000000e+00  1.0317658754090409e-03 -2.6324182365303272e-01 0.0000000000000000e+00  1.7137088708218673e-03 -3.5999844846376106e-01 0.0000000000000000e+00  -2.2282024651256449e-03 -3.2086780667408527e-01 0.0000000000000000e+00  7.1902529601224063e-04 -9.5175153504634546e-01 0.0000000000000000e+00  -1.7776585408722095e-04 -9.6329224499653821e-01 0.0000000000000000e+00  -2.8576552644826725e-03 -7.9499575964921898e-01 0.0000000000000000e+00  3.8825933158473380e-