<?xml version="1.0"?>
<VTKFile type="UnstructuredGrid"  version="0.1"  >
<UnstructuredGrid>
<Piece  NumberOfPoints="1385" NumberOfCells="2640">
<Points>
<DataArray  type="Float64"  NumberOfComponents="3"  format="ascii">0 0 0  1 0 0  1 1 0  0 1 0  0.5 0 0  1 0.5 0  0.5 1 0  0 0.5 0  0.5 0.5 0  0 0.25 0  0.25 0 0  0.25 1 0  0 0.75 0  1 0.25 0  0.75 0 0  1 0.75 0  0.75 1 0  0.7083333333333333 0.2916666666666667 0  0.2916666666666666 0.7083333333333334 0  0.375 0.25 0  0.75 0.625 0  0.2569444444444444 0.4652777777777778 0  0.5366379310344828 0.7535919540229885 0  0.1875 0.1875 0  0.8125 0.8125 0  0.869047619047619 0.375 0  0.1450441919191919 0.6052714646464646 0  0.375 0.8690476190476191 0  0.5526960784313725 0.1825980392156862 0  0.8385416666666666 0.1614583333333334 0  0.1614583333333333 0.8385416666666667 0  0.6736111111111112 0.4652777777777778 0  0.1367521367521368 0.3477564102564102 0  0.6570970491253563 0.8648656830417855 0  0.5102479397556124 0.3386260301221938 0  0.3654513888888889 0.5737847222222222 0  0.6929750044954185 0.1362784921584263 0  0.388576102743835 0.411911725237599 0  0.6091269841269842 0.5942460317460317 0  0.875 0.6875 0  0.427278890279516 0.119889445139758 0  0.8544456845238095 0.5213913690476191 0  0.125 0 0  0 0.125 0  1 0.875 0  0.875 1 0  0.1280008648150532 0.4769292340226777 0  0.2695382451711197 0.3321750950221553 0  0.7031567235715964 0.7447810921428012 0  0.625 0 0  0.375 0 0  0.125 1 0  0.875 0 0  0 0.375 0  0 0.625 0  1 0.375 0  0.375 1 0  1 0.125 0  0 0.875 0  0.625 1 0  1 0.625 0  0.2979288363930608 0.1201429454643536 0  0.410919540229885 0.7484605911330049 0  0.5325041980395562 0.878905151526474 0  0.4831670727569156 0.6331060043826487 0  0.1735997378973042 0.7204747378973043 0  0.2534919507575758 0.5772372159090909 0  0.2633928571428572 0.8876488095238095 0  0.8199404761904761 0.2730654761904762 0  0.75830270586982 0.3919383189517417 0  0.5750282248382511 0.4237522353023667 0  0.6008360210023379 0.2794828358598495 0  0.08163442644334186 0.6821295860397322 0  0.08333333333333333 0.1875 0  0.2028380815996574 0.08844602719988583 0  0.2766521142611967 0.2325436572164097 0  0.90625 0.78125 0  0.890625 0.890625 0  0.7545696325008384 0.8973565441669461 0  0.5625 0.08086590340834317 0  0.09077380952380953 0.09077380952380952 0  0.4610923478694773 0.209034015149656 0  0.7542527598351648 0.5248380520595106 0  0.6459235536037465 0.3619913988405765 0  0.7560381768882634 0.20506142233852 0  0.07073252688172042 0.8125 0  0.0924753097241701 0.9078102849914793 0  0.9292674731182795 0.1875 0  0.9075246902758297 0.09218971500852073 0  0.8125 0.07073252688172045 0  0.2400955776842301 0.7869705776842302 0  0.9121050213379069 0.2781978201831695 0  0.7916878157143976 0.7239689078571988 0  0.9345238095238094 0.4375 0  0.4375 0.9345238095238095 0  0.3725616989755203 0.6651895248862173 0  0.06536271996350887 0.5625 0  0.9348362560379583 0.5625 0  0.456646798987055 0.8277247094351965 0  0.1875 0.9355758238725954 0  0.6169761231634859 0.6939779188977889 0  0.6226854751147515 0.7827911461419014 0  0.3305695598137626 0.7901697871282585 0  0.5865305325818898 0.5101085479043448 0  0.6622701297028378 0.2177663989757395 0  0.1354166666666667 0.2591702279202279 0  0 0.3125 0  0.2094429575680048 0.3936361846162499 0  0.836666296419157 0.607917407161686 0  0.6875 1 0  0.214261555450504 0.6492551722020035 0  0 0.4375 0  0.07731537126068377 0.40625 0  0.3427725432967068 0.4879566233699599 0  0.3550792513951871 0.3331953632609953 0  0.4462473953896857 0.2887834789342508 0  0.4747801464819794 0.417386052030127 0  0.8229836475148948 0.4443292349237342 0  0.7322605135514757 0.8199240278289671 0  0.6756431877205955 0.5468989748126787 0  0.1968419507215863 0.5194573482612496 0  0.3285590277777778 0.9345238095238095 0  0.8125 1 0  0.4198917601920009 0.5134893045331258 0  0.5232405503206691 0.2595791787880157 0  1 0.9375 0  0.1987510870015086 0.3025185951894431 0  0.5625 1 0  0.6005390654136388 0.9228110509230952 0  0.6411254848194414 0.07704872765442942 0  0.3357233162523242 0.1855113224530532 0  0.6730653396610877 0.6393887462324165 0  0.310966987234063 0.6240019765311626 0  0.7368737836204349 0.07457755202327881 0  0.6192316414418171 0.1485238406378594 0  0.5432429670607106 0.678552703844006 0  0.4754371679695679 0.7103946803120881 0  0.07501324890749672 0.3043839897335739 0  0.5358146975860403 0.5688321463205916 0  0.3115271739500156 0.3982137365971444 0  0.3625191397122174 0.0767854603650549 0  0.5024029442563831 0.1264128223758444 0  0.4375 0 0  0.4699946908887376 0.06379961173775725 0  0.9375 0.71875 0  0.9272105898044465 0.635671179608893 0  0.9375 1 0  0.6690971819568612 0.9331530898202766 0  0.1073454944778885 0.7499206387638554 0  0.8699082999280406 0.2232403652524313 0  0.5773118091863964 0.3548027349159383 0  0.1354166666666667 0.1428571428571428 0  0.3125 0 0  0.8241684193077341 0.9257452995055244 0  0.4352314948354036 0.3586940847489378 0  0.4351301473778832 0.5819726043539077 0  0.8073232928518163 0.3419398170341962 0  0.7775949246947366 0.1298519409204575 0  0.6875 0 0  0.7413513991851041 0.457933324954483 0  0.939453125 0.841796875 0  0.5630355154606987 0.8171875156478349 0  0.9345238095238095 0.3461466592368577 0  0.9375 0 0  1 0.0625 0  0.0625 1 0  0 0.9375 0  0.06552178593177167 0.4969053669623468 0  0.1424866619031703 0.4130277709291224 0  0.1275287182444726 0.5422946908002588 0  0.2637686595586339 0.06413888464529549 0  0.2524263535491086 0.1697437503243817 0  0.7367218397988525 0.6888573970660841 0  0.0625 0 0  0 0.0625 0  0.8463594539285995 0.7578283617857982 0  0.3128751192101563 0.2851997374369947 0  0.4015281788351144 0.1806421385113692 0  0.1910251795116588 0.4553332197174453 0  0.287797471442006 0.5222621440543902 0  0.3962628745986055 0.8097380085535307 0  0.3505895299554843 0.7304878890838692 0  0.5019151500495276 0.9356042615328103 0  0.9374389419410134 0.4999931039076005 0  0.3125 1 0  0.1875 1 0  1 0.5625 0  0.4375 1 0  1 0.3125 0  1 0.4375 0  0.8125 0 0  1 0.1875 0  0.5625 0 0  0.1875 0 0  0 0.1875 0  0 0.5625 0  0 0.6875 0  0 0.8125 0  1 0.6875 0  1 0.8125 0  0.8021696218581627 0.6612893947866073 0  0.06154922295426143 0.6239401126946708 0  0.9359375 0.9359375 0  0.4666158024849896 0.7691515918155014 0  0.2318201265217025 0.7064974250277525 0  0.1565954253579966 0.6635489312486841 0  0.1598132503680848 0.7787147500325552 0  0.3146529991605639 0.8510876378205265 0  0.1461873209418733 0.05982804528877814 0  0.06109554988524315 0.2446551776247686 0  0.8054950308560754 0.5564226538848541 0  0.470541749491976 0.8853316336952531 0  0.6948472567465137 0.4042308563372457 0  0.8802828472348889 0.4658893256343853 0  0.6788075634946739 0.7974194205806069 0  0.2155048659603867 0.2428201584940968 0  0.8131223143423806 0.2132171049028394 0  0.4330798005432235 0.6671274900735726 0  0.6015279126162613 0.2187368078743274 0  0.8061636571464289 0.8703766630361714 0  0.7008230445061776 0.3478568388444072 0  0.8638466246958771 0.3147095987735538 0  0.204801534004265 0.8789209409594009 0  0.2449006736431132 0.9424182882803838 0  0.7611268409371427 0.2643056884799992 0  0.7552800864046191 0.7678006649959446 0  0.5983639638906616 0.864113435029236 0  0.1956559506814437 0.577281203577426 0  0.3527670268164207 0.1320469097565204 0  0.7530364577483248 0.3262386077083089 0  0.4535919187979363 0.4690107087451527 0  0.8824869791666666 0.8336588541666666 0  0.8814453125 0.9451171875 0  0.5582987942628019 0.622421666543858 0  0.6817532446064828 0.6939001801354731 0  0.3830295138888889 0.9450968952922078 0  0.4140603937012541 0.05211333372716105 0  0.5535864501303013 0.3060591985391672 0  0.6560130086346878 0.2729726562211558 0  0.890203140221684 0.5948314305427268 0  0.7043857725999024 0.593980890020804 0  0.5105843922695152 0.8016828014338627 0  0.05365910753708378 0.7315110031682004 0  0.616904573672261 0.4621186633436136 0  0.5338511646455415 0.387875898899613 0  0.5231769258947843 0.4477682463140762 0  0.650302973237622 0.7370722302085519 0  0.3927483139621257 0.4662414504529014 0  0.8034595960585199 0.4972538342758211 0  0.7738337841682438 0.9496376207663251 0  0.7193737507158268 0.954685447650112 0  0.482525916480686 0.5528257169991676 0  0.2533501157346781 0.2809495420003238 0  0.3118487924482243 0.5702930126570319 0  0.6257598847669529 0.4104163315430518 0  0.1354166666666667 0.1955605158730158 0  0.04166666666666666 0.15625 0  0.3956448985530264 0.6174149462065157 0  0.8102897701818546 0.3938784238208349 0  0.2641154190013625 0.8344469561943118 0  0.642852220770013 0.5068794586563659 0  0.05271458179508221 0.355846947336007 0  0.7021551360070266 0.8921457280225779 0  0.5692125776683765 0.1328512638850284 0  0.5206162811937602 0.04865158770992991 0  0.6001838442201555 0.04540556991297563 0  0.2597716608242787 0.4118346398477178 0  0.4040584599473195 0.3179589136784675 0  0.1480337679295207 0.8941560631483065 0  0.1344356707112281 0.9466251177415842 0  0.7114696411829317 0.4983917389078826 0  0.7585704698442475 0.5751926345944629 0  0.2189131956390871 0.04022068508159698 0  0.2476935455192043 0.1123642267635843 0  0.185995005654517 0.1365524537205238 0  0.6223414373308711 0.643380839165121 0  0.5732602596637543 0.7190051747306219 0  0.268358222364537 0.6586246524467934 0  0.3265879848129173 0.2369791782191225 0  0.1267095595787346 0.7034787238999181 0  0.1115202922226038 0.6421997933884982 0  0.3128688392940203 0.07260997451790079 0  0.550724900485678 0.9253360991633187 0  0.7142608810459105 0.2384904702214873 0  0.7045869185243887 0.1871826897887429 0  0.890625 0.734375 0  0.953125 0.765625 0  0.2111812642821677 0.8286209446459138 0  0.9590293078204457 0.09375 0  0.953431269039847 0.1435719386408004 0  0.04097069217955424 0.90625 0  0.04656873096015299 0.8564280613591996 0  0.1078743037981226 0.8541621766048062 0  0.8921256962018773 0.1458378233951939 0  0.8521576979194619 0.1084496634207678 0  0.8655663982740958 0.05464346096571447 0  0.04005659640905543 0.09375 0  0.1001448316533417 0.04246776244228261 
[...]
<PointData  Vectors="f_8394-0-1"> 
<DataArray  type="Float64"  Name="f_8394-0-1"  NumberOfComponents="3" format="ascii">4.2159307808475877e-03 -1.7422418231114227e-02 0.0000000000000000e+00  1.4848798942972020e-03 -8.4266488739206480e-01 0.0000000000000000e+00  2.4066930203068535e-03 -9.1288587781292352e-01 0.0000000000000000e+00  9.5993578297288475e-06 -8.4531783745733291e-01 0.0000000000000000e+00  3.0517145526424150e-03 -4.8605320469274377e-01 0.0000000000000000e+00  -1.3585553199069178e-04 -9.9708375797568527e-01 0.0000000000000000e+00  1.0182906100708600e-04 -9.9766886812018374e-01 0.0000000000000000e+00  5.2822333202148242e-03 -4.8437406764902219e-01 0.0000000000000000e+00  -2.1273571107674749e-03 -8.3690061138719762e-01 0.0000000000000000e+00  1.6656050841261766e-03 -2.5577313583673350e-01 0.0000000000000000e+00  4.0887762864745825e-03 -2.5518228225616313e-01 0.0000000000000000e+00  -9.8190402146222655e-04 -9.4598917841221231e-01 0.0000000000000000e+00  1.0323272841956776e-03 -6.8638369059808346e-01 0.0000000000000000e+00  -1.7675335114604174e-03 -9.4660491866544727e-01 0.0000000000000000e+00  -1.6293490584742831e-03 -6.7504919055744905e-01 0.0000000000000000e+00  1.0575269390509234e-03 -9.8542630219449734e-01 0.0000000000000000e+00  6.3953129884877086e-04 -9.8356912386093187e-01 0.0000000000000000e+00  1.2908941486454717e-03 -8.4671911903485753e-01 0.0000000000000000e+00  3.3775904800815715e-03 -8.4578370584739471e-01 0.0000000000000000e+00  -2.2255772333616419e-03 -5.8043983462530480e-01 0.0000000000000000e+00  -7.7236773369093736e-04 -9.7993945592226850e-01 0.0000000000000000e+00  1.3233802460543842e-06 -6.5533249247476355e-01 0.0000000000000000e+00  1.0075779613009095e-03 -9.6380740377685836e-01 0.0000000000000000e+00  -4.1093021353192025e-03 -3.5819876408545365e-01 0.0000000000000000e+00  3.2028309723786119e-04 -9.9861742577295476e-01 0.0000000000000000e+00  8.5516468067806106e-04 -9.5110306351745066e-01 0.0000000000000000e+00  -1.5194014234227726e-03 -6.7516628822231906e-01 0.0000000000000000e+00  8.2658864933404796e-04 -9.5004773794934039e-01 0.0000000000000000e+00  3.0567691284908716e-03 -6.6925118427272823e-01 0.0000000000000000e+00  -1.7585758072146372e-03 -8.4715997305302015e-01 0.0000000000000000e+00  -2.2848247606567784e-03 -8.3784242436208389e-01 0.0000000000000000e+00  4.1169934670953756e-04 -9.1272440999127746e-01 0.0000000000000000e+00  -1.3629432132928332e-03 -4.7056204129740764e-01 0.0000000000000000e+00  1.9787531047787965e-04 -9.9900999267055801e-01 0.0000000000000000e+00  -4.3634443547519164e-03 -7.4627156668193095e-01 0.0000000000000000e+00  1.3184112406184889e-03 -8.1283484288893437e-01 0.0000000000000000e+00  -2.2457667773001511e-03 -7.3246176652492534e-01 0.0000000000000000e+00  -1.8165431834983314e-03 -7.1419509105732970e-01 0.0000000000000000e+00  -8.2444304924322864e-04 -9.3314621135525921e-01 0.0000000000000000e+00  -6.6689351886584092e-05 -9.9996122401708820e-01 0.0000000000000000e+00  4.4810216428798205e-03 -5.2900102703117691e-01 0.0000000000000000e+00  3.4738201145023684e-04 -9.8286863666540147e-01 0.0000000000000000e+00  4.5857630741433925e-03 -1.2722157398947428e-01 0.0000000000000000e+00  -1.3230436961667730e-04 -1.3072040515014349e-01 0.0000000000000000e+00  1.9178342971035711e-03 -9.5645449497844381e-01 0.0000000000000000e+00  1.1058788336168468e-03 -9.5523132536375521e-01 0.0000000000000000e+00  3.1417554893225508e-03 -5.7442341708190503e-01 0.0000000000000000e+00  -4.2371061692258460e-03 -5.5903353721981064e-01 0.0000000000000000e+00  -3.9001205608571454e-04 -9.9121748125956133e-01 0.0000000000000000e+00  1.8479866163817471e-03 -5.9131310881499777e-01 0.0000000000000000e+00  5.9410297315114213e-03 -3.6895169871436828e-01 0.0000000000000000e+00  -2.2962833251971015e-03 -9.0035805552563919e-01 0.0000000000000000e+00  3.4070658546482280e-03 -7.7068779751645722e-01 0.0000000000000000e+00  5.7681162710696010e-03 -3.7648879133938623e-01 0.0000000000000000e+00  1.6591392039301770e-03 -5.9044730749394370e-01 0.0000000000000000e+00  -1.2620558483643629e-03 -9.7929517943798616e-01 0.0000000000000000e+00  1.5526944415768240e-04 -9.8286837395243032e-01 0.0000000000000000e+00  -2.5567303309724787e-03 -8.9986039055155576e-01 0.0000000000000000e+00  2.8839282448960279e-03 -7.7213925201197742e-01 0.0000000000000000e+00  1.0455864065184173e-04 -9.9851887170878417e-01 0.0000000000000000e+00  2.6667190753282277e-04 -9.9877023325175429e-01 0.0000000000000000e+00  4.3110346387276732e-03 -4.1652013909155644e-01 0.0000000000000000e+00  -1.0090838778653577e-03 -9.1472125834292750e-01 0.0000000000000000e+00  -1.0153757591745416e-03 -9.8670759396373808e-01 0.0000000000000000e+00  -2.1116543644116165e-03 -8.9571058253554880e-01 0.0000000000000000e+00  2.2086222776381420e-03 -7.8430507324005561e-01 0.0000000000000000e+00  5.1498358920630261e-03 -7.4102957270530068e-01 0.0000000000000000e+00  -2.0458628645563248e-03 -9.0842493664335411e-01 0.0000000000000000e+00  -8.0269581909980792e-04 -8.8334686888137748e-01 0.0000000000000000e+00  1.1657227060708486e-03 -9.1646156906938292e-01 0.0000000000000000e+00  2.5842512794005401e-03 -8.4570243136666778e-01 0.0000000000000000e+00  7.2198529596045891e-04 -7.7729396630369840e-01 0.0000000000000000e+00  -3.7113346778419043e-03 -6.8604235674139935e-01 0.0000000000000000e+00  -4.1845272487259083e-03 -2.6628179422747211e-01 0.0000000000000000e+00  -3.9327721951110950e-03 -2.7878927672757092e-01 0.0000000000000000e+00  3.0776247541185187e-03 -4.9234620397313172e-01 0.0000000000000000e+00  7.8314619611999370e-04 -9.9210913279146862e-01 0.0000000000000000e+00  4.4693711760834809e-04 -9.7945546752552459e-01 0.0000000000000000e+00  2.5066263568013572e-04 -9.9627158487308365e-01 0.0000000000000000e+00  -2.5564177161180729e-03 -6.0116696090601385e-01 0.0000000000000000e+00  4.3193658473442975e-03 -1.7460301046548857e-01 0.0000000000000000e+00  -8.6385452887347003e-04 -6.1491515638562322e-01 0.0000000000000000e+00  5.8110083548640334e-04 -9.6030879105035383e-01 0.0000000000000000e+00  -2.5840873434175293e-03 -8.4789021933439268e-01 0.0000000000000000e+00  -2.3404599990981267e-03 -8.1527337325453442e-01 0.0000000000000000e+00  7.6365676987723285e-04 -7.7968061968183444e-01 0.0000000000000000e+00  -1.2547487195842533e-03 -8.3653780452704996e-01 0.0000000000000000e+00  1.4087931696228212e-03 -9.0373849937420092e-01 0.0000000000000000e+00  -2.4225488208101664e-03 -8.4224102050711425e-01 0.0000000000000000e+00  3.7800492985664569e-03 -7.7573007029303587e-01 0.0000000000000000e+00  -1.8110743694831864e-03 -8.5138614431948989e-01 0.0000000000000000e+00  -1.2292722749408513e-03 -9.2700082917052540e-01 0.0000000000000000e+00  2.0659570165929009e-04 -9.9910627010461206e-01 0.0000000000000000e+00  6.1020418670726384e-04 -9.8228336467318045e-01 0.0000000000000000e+00  3.5726463831020627e-04 -9.8166856959299886e-01 0.0000000000000000e+00  -2.3726474610591408e-03 -8.5728480144591646e-01 0.0000000000000000e+00  -2.5868031973018922e-03 -5.8096526482066391e-01 0.0000000000000000e+00  1.7590838120917773e-04 -9.9816123074510488e-01 0.0000000000000000e+00  1.5773622053494307e-04 -9.5798177022806374e-01 0.0000000000000000e+00  -1.9433955703938022e-03 -8.9831163126171754e-01 0.0000000000000000e+00  -1.5017822973207584e-03 -9.6431936838678656e-01 0.0000000000000000e+00  -5.0378374332682441e-04 -9.8486982643441112e-01 0.0000000000000000e+00  2.0579257979577714e-03 -9.0303698918466357e-01 0.0000000000000000e+00  7.4529094826841780e-04 -8.9373804350522379e-01 0.0000000000000000e+00  -3.5914859768872986e-03 -7.6846833222231836e-01 0.0000000000000000e+00  3.6412965300710032e-03 -3.9055317457515731e-01 0.0000000000000000e+00  5.7431905666388561e-03 -3.1349248340861868e-01 0.0000000000000000e+00  4.2668775397708414e-03 -5.7468561915265348e-01 0.0000000000000000e+00  -1.6146100129757479e-04 -9.9258115177063577e-01 0.0000000000000000e+00  6.2349302763159420e-04 -9.9309999443568575e-01 0.0000000000000000e+00  7.2188224873120932e-05 -7.5522790289022768e-01 0.0000000000000000e+00  -2.6306459036003925e-03 -4.2687134054990911e-01 0.0000000000000000e+00  -4.1005013492254050e-04 -4.7294754527984473e-01 0.0000000000000000e+00  -1.5368344637749776e-03 -7.3139767522811683e-01 0.0000000000000000e+00  2.6734216301136371e-03 -6.4191615212864495e-01 0.0000000000000000e+00  1.9238657197784281e-03 -6.7955858827842475e-01 0.0000000000000000e+00  1.0156127929574765e-03 -7.8514399014124070e-01 0.0000000000000000e+00  -5.0573799918283632e-04 -9.5125723047873867e-01 0.0000000000000000e+00  1.8832534818269409e-06 -9.9988201588412640e-01 0.0000000000000000e+00  1.2632802881561433e-03 -9.4278489433634460e-01 0.0000000000000000e+00  3.6972790373392406e-03 -6.6272587727328447e-01 0.0000000000000000e+00  -2.0360446077534178e-03 -9.4987052324092569e-01 0.0000000000000000e+00  9.4478917305941545e-04 -9.7072181791823142e-01 0.0000000000000000e+00  2.3953630998006618e-03 -8.0425000488675158e-01 0.0000000000000000e+00  -2.6691349055502078e-03 -7.0070646885472265e-01 0.0000000000000000e+00  2.2353445448319853e-03 -9.3636763033399772e-01 0.0000000000000000e+00  3.4821306314933437e-03 -4.8838243551741434e-01 0.0000000000000000e+00  -8.2320784012770488e-05 -9.9959318077052772e-01 0.0000000000000000e+00  2.3960181359639066e-05 -9.9849039992958444e-01 0.0000000000000000e+00  1.2781462320042847e-03 -6.6428453505293472e-01 0.0000000000000000e+00  -3.7028261712289401e-03 -4.8714846115136495e-01 0.0000000000000000e+00  -1.0665989412131927e-03 -9.6465323057799368e-01 0.0000000000000000e+00  -1.5013219360801022e-03 -7.9826038960376056e-01 0.0000000000000000e+00  4.2097695598025120e-03 -7.3132141299360531e-01 0.0000000000000000e+00  2.3255447269362461e-03 -7.0147033693105521e-01 0.0000000000000000e+00  1.1832178522855896e-03 -9.4312635951273727e-01 0.0000000000000000e+00  1.9276549467585335e-03 -9.3066002132515879e-01 0.0000000000000000e+00  3.2624256405530683e-03 -3.7878388262535956e-01 0.0000000000000000e+00  9.0091749270716174e-04 -8.8984226189791904e-01 0.0000000000000000e+00  2.6903902799567114e-03 -6.5829678256235158e-01 0.0000000000000000e+00  -4.3765062476589511e-03 -4.2103998561511841e-01 0.0000000000000000e+00  2.6993631572651486e-03 -5.9478817557620411e-01 0.0000000000000000e+00  4.3992528578055967e-03 -4.2789100235935223e-01 0.0000000000000000e+00  -4.1372648614663721e-03 -5.0152172150649943e-01 0.0000000000000000e+00  2.0325566091421859e-04 -9.9711518712606284e-01 0.0000000000000000e+00  -8.3884437779527254e-05 -1.0000226628588327e+00 0.0000000000000000e+00  -3.1777492030775345e-04 -9.2875716284149279e-01 0.0000000000000000e+00  -2.1603056685326472e-04 -9.9891242095905652e-01 0.0000000000000000e+00  -3.5241612615608542e-03 -7.4923647931082460e-01 0.0000000000000000e+00  -1.5478711137948409e-03 -8.8345383642805586e-01 0.0000000000000000e+00  8.8978669466821536e-04 -8.0887527129036429e-01 0.0000000000000000e+00  2.7520422771720732e-04 -2.8265243958604352e-01 0.0000000000000000e+00  3.0640498525198179e-03 -3.1403337366130468e-01 0.0000000000000000e+00  -1.0407422873311978e-03 -9.8486158514759792e-01 0.0000000000000000e+00  2.1940503108187626e-03 -7.1922392216099618e-01 0.0000000000000000e+00  3.1131385121516142e-03 -8.5294019193651616e-01 0.0000000000000000e+00  7.5622746906411908e-04 -9.1710380286045190e-01 0.0000000000000000e+00  2.9636564473129179e-03 -7.9141451966123499e-01 0.0000000000000000e+00  2.4430295362379562e-03 -6.4112516537461561e-01 0.0000000000000000e+00  -7.1909178582821309e-04 -9.2873063861552674e-01 0.0000000000000000e+00  -7.6020658409831077e-04 -9.7544056835024495e-01 0.0000000000000000e+00  -1.1897162843507170e-03 -9.8077811331304432e-01 0.0000000000000000e+00  -1.5356134442814362e-03 -9.5699080419855265e-01 0.0000000000000000e+00  3.2632563812333149e-03 -8.0943387035675463e-01 0.0000000000000000e+00  -2.1175909573533103e-03 -8.7000258396997832e-01 0.0000000000000000e+00  -2.7274018303141689e-03 -8.7201918014589963e-01 0.0000000000000000e+00  3.5780453630561947e-04 -8.0955511994144858e-01 0.0000000000000000e+00  -2.1618879396503310e-03 -5.2619335382539834e-01 0.0000000000000000e+00  -6.7086495407209235e-04 -5.2044984727289767e-01 0.0000000000000000e+00  -2.3537286193137108e-03 -6.1143953413709740e-01 0.0000000000000000e+00  2.5025508193894097e-03 -3.3165911807012272e-01 0.0000000000000000e+00  3.8822713521294849e-03 -4.1976281865001730e-01 0.0000000000000000e+00  1.3772371923681526e-04 -9.9136670414495698e-01 0.0000000000000000e+00  4.8786346224686458e-03 -6.6740575667437713e-02 0.0000000000000000e+00  -3.2641239014920314e-04 -6.7536956310710536e-02 0.0000000000000000e+00  1.3240789197610514e-04 -9.9967814457514437e-01 0.0000000000000000e+00  -5.2811161892381275e-03 -5.5671160883061388e-01 0.0000000000000000e+00  1.1768938489243319e-03 -5.5929752521707432e-01 0.0000000000000000e+00  -4.7028706111473528e-03 -5.9827170073934843e-01 0.0000000000000000e+00  -3.1008598632350504e-03 -7.1918365142409535e-01 0.0000000000000000e+00  -1.6104653946285852e-03 -9.3045814677027161e-01 0.0000000000000000e+00  2.7837086264881350e-04 -8.8740252555773047e-01 0.0000000000000000e+00  -6.0655925958186252e-04 -9.8984494279543811e-01 0.0000000000000000e+00  5.3547194851560204e-04 -9.9236569945497000e-01 0.0000000000000000e+00  -5.9514398072535446e-04 -9.6465205077111460e-01 0.0000000000000000e+00  -2.0789684954935217e-03 -9.2493695422291411e-01 0.0000000000000000e+00  -1.9302769104568006e-04 -1.0000377981403146e+00 0.0000000000000000e+00  1.7723953098022771e-04 -9.9243233467244452e-01 0.0000000000000000e+00  -1.4785211999227554e-03 -9.6518141366708632e-01 0.0000000000000000e+00  -5.6436055467445900e-04 -9.8994281562736597e-01 0.0000000000000000e+00  2.2853407582815160e-03 -7.3147974400444604e-01 0.0000000000000000e+00  -1.8840658510511643e-03 -9.2459350675855911e-01 0.0000000000000000e+00  5.1995848148849722e-03 -5.3709227497339529e-01 0.0000000000000000e+00  2.9228832381337222e-03 -1.9453687282505480e-01 0.0000000000000000e+00  2.4322064780219299e-03 -1.9342292778565598e-01 0.0000000000000000e+00  -2.2711169766147688e-04 -5.4262521529591778e-01 0.0000000000000000e+00  -1.6512426864452551e-03 -6.3506023751022012e-01 0.0000000000000000e+00  2.5325015191260958e-03 -7.3332835259120566e-01 0.0000000000000000e+00  6.4470354734158519e-04 -9.9370452841459522e-01 0.0000000000000000e+00  -4.9664969490157643e-04 -9.7258117203009165e-01 0.0000000000000000e+00  4.2190266106811869e-04 -9.9533841527900258e-01 0.0000000000000000e+00  -3.0219461852226681e-04 -6.2321662098985808e-01 0.0000000000000000e+00  -8.9628279039005720e-04 -9.5160725299940196e-01 0.0000000000000000e+00  1.0751901189348656e-03 -9.4781928030588425e-01 0.0000000000000000e+00  3.6519428693251865e-03 -8.0996665734494622e-01 0.0000000000000000e+00  -3.0251357783679378e-03 -7.2426703238187295e-01 0.0000000000000000e+00  -5.2598570031509029e-04 -8.0315563611102858e-01 0.0000000000000000e+00  1.9073747388488882e-03 -9.2085633494212260e-01 0.0000000000000000e+00  4.4604759926555812e-03 -2.1171220954213812e-01 0.0000000000000000e+00  -5.2733743303841896e-03 -2.9739972438337586e-01 0.0000000000000000e+00  5.0654788807447115e-04 -9.8017888318671176e-01 0.0000000000000000e+00  1.2222133816223724e-03 -9.7717729042781598e-01 0.0000000000000000e+00  -9.7541894281510944e-04 -8.9356300329075466e-01 0.0000000000000000e+00  5.7659218471339813e-04 -9.7734679144309078e-01 0.0000000000000000e+00  -3.2845668765824065e-04 -9.9492047773021375e-01 0.0000000000000000e+00  2.9845669931121699e-03 -4.5061233621236652e-01 0.0000000000000000e+00  2.6022648675240456e-03 -8.5742539445180543e-01 0.0000000000000000e+00  3.8650353625577782e-03 -8.9205055816498446e-01 0.0000000000000000e+00  -4.4091794760778291e-04 -7.3806654313342246e-01 0.0000000000000000e+00  -5.0013533720316694e-04 -9.9341347960509530e-01 0.0000000000000000e+00  1.1223867085630654e-03 -8.7220060240007058e-01 0.0000000000000000e+00  1.4273020847970792e-03 -9.2736100053704862e-01 0.0000000000000000e+00  1.2684624451444471e-03 -8.8826680824265780e-01 0.0000000000000000e+00  1.0850854663453369e-03 -9.2973305357147218e-01 0.0000000000000000e+00  -2.6423421191270335e-03 -8.5204519389158540e-01 0.0000000000000000e+00  2.5775919006909565e-04 -9.9914843005243581e-01 0.0000000000000000e+00  -3.2059024823971605e-04 -9.9311400944133521e-01 0.0000000000000000e+00  1.4227985151040179e-03 -6.9615278354944254e-01 0.0000000000000000e+00  3.6800402273461374e-03 -4.7310916154493954e-01 0.0000000000000000e+00  2.4346504026584448e-04 -8.7666200129760119e-01 0.0000000000000000e+00  2.2515087032518588e-03 -8.0185355771943279e-01 0.0000000000000000e+00  -6.4985680848372862e-04 -9.8992415575392123e-01 0.0000000000000000e+00  1.0134300173387789e-03 -9.6987954559719636e-01 0.0000000000000000e+00  -2.4492890690482882e-03 -9.2164997352571232e-01 0.0000000000000000e+00  -7.6072260005155545e-04 -9.8269866315619114e-01 0.0000000000000000e+00  8.3915183333527210e-04 -9.7247854708362680e-01 0.0000000000000000e+00  1.7411461868039324e-03 -4.5916503089288874e-01 0.0000000000000000e+00  1.6635102720129746e-03 -7.6327432426497566e-01 0.0000000000000000e+00  4.4803280453381000e-03 -8.0122163013561876e-01 0.0000000000000000e+00  3.3711756972390483e-04 -9.9694266653298502e-01 0.0000000000000000e+00  6.4936637566026523e-04 -9.6613091857699374e-01 0.0000000000000000e+00  -9.3352628143561489e-04 -9.6447977158237586e-01 0.0000000000000000e+00  2.2871386355301504e-03 -7.1253910397568176e-01 0.0000000000000000e+00  1.0904900022508657e-03 -8.8565521247097168e-01 0.0000000000000000e+00  -3.5013374349620874e-03 -7.9195609109479503e-01 0.0000000000000000e+00  -2.0831432758730006e-03 -8.1999703749949104e-01 0.0000000000000000e+00  -6.5111914489013561e-04 -9.8136330682898376e-01 0.0000000000000000e+00  1.4212302136371868e-03 -7.6345600295245919e-01 0.0000000000000000e+00  1.2777958005883994e-03 -9.6698936811603775e-01 0.0000000000000000e+00  2.1262619883744005e-04 -9.8719484685727288e-01 0.0000000000000000e+00  7.9522190755021427e-05 -9.9373925768496651e-01 0.0000000000000000e+00  2.2775698400262501e-03 -8.6472231555382040e-01 0.0000000000000000e+00  -1.2825191004933179e-03 -5.1510807895265565e-01 0.0000000000000000e+00  -5.7031685129804808e-05 -7.6644908303053938e-01 0.0000000000000000e+00  2.2946510020986910e-03 -8.6543959619521049e-01 0.0000000000000000e+00  2.0683728423635112e-04 -3.1434841148237253e-01 0.0000000000000000e+00  -5.6771458164490973e-03 -1.8802721551631540e-01 0.0000000000000000e+00  -2.1432599990846152e-03 -8.5146043937965588e-01 0.0000000000000000e+00  1.0701719686068145e-03 -9.3667732918230839e-01 0.0000000000000000e+00  -1.4084206715167524e-04 -8.8744609090893312e-01 0.0000000000000000e+00  -6.9118785205062733e-04 -9.0890585140530944e-01 0.0000000000000000e+00  3.5218192082496214e-03 -4.0358946484285069e-01 0.0000000000000000e+00  9.4169701184143584e-05 -9.9969665772400884e-01 0.0000000000000000e+00  7.7598542247617197e-04 -6.4182055057227128e-01 0.0000000000000000e+00  -3.2002439376860314e-03 -5.3242222524337024e-01 0.0000000000000000e+00  -3.3563286835692763e-03 -5.9469648851432733e-01 0.0000000000000000e+00  -2.3084741751120685e-03 -6.1332757324170317e-01 0.0000000000000000e+00  -4.8547923492027190e-03 -6.6249843653003904e-01 0.0000000000000000e+00  1.4622103933065803e-03 -8.6781037550829054e-01 0.0000000000000000e+00  -2.3331590284194625e-03 -8.7786570005457254e-01 0.0000000000000000e+00  -5.4655623623289795e-04 -9.3304818502950926e-01 0.0000000000000000e+00  -7.1688323903507101e-04 -9.7064437161067352e-01 0.0000000000000000e+00  1.0228937105291602e-03 -2.6339493884703663e-01 0.0000000000000000e+00  1.7137292989646835e-03 -3.6015831758858141e-01 0.0000000000000000e+00  -2.2302030506632098e-03 -3.2097117240566858e-01 0.0000000000000000e+00  7.2080913320476947e-04 -9.5180490071878121e-01 0.0000000000000000e+00  -1.7763306606258591e-04 -9.6328883763285833e-01 0.0000000000000000e+00  -2.8588318872768692e-03 -7.9497732483654648e-01 0.0000000000000000e+00  3.8887584831356903e-