<?xml version="1.0"?>
<VTKFile type="UnstructuredGrid"  version="0.1"  >
<UnstructuredGrid>
<Piece  NumberOfPoints="1385" NumberOfCells="2640">
<Points>
<DataArray  type="Float64"  NumberOfComponents="3"  format="ascii">0 0 0  1 0 0  1 1 0  0 1 0  0.5 0 0  1 0.5 0  0.5 1 0  0 0.5 0  0.5 0.5 0  0 0.25 0  0.25 0 0  0.25 1 0  0 0.75 0  1 0.25 0  0.75 0 0  1 0.75 0  0.75 1 0  0.7083333333333333 0.2916666666666667 0  0.2916666666666666 0.7083333333333334 0  0.375 0.25 0  0.75 0.625 0  0.2569444444444444 0.4652777777777778 0  0.5366379310344828 0.7535919540229885 0  0.1875 0.1875 0  0.8125 0.8125 0  0.869047619047619 0.375 0  0.1450441919191919 0.6052714646464646 0  0.375 0.8690476190476191 0  0.5526960784313725 0.1825980392156862 0  0.8385416666666666 0.1614583333333334 0  0.1614583333333333 0.8385416666666667 0  0.6736111111111112 0.4652777777777778 0  0.1367521367521368 0.3477564102564102 0  0.6570970491253563 0.8648656830417855 0  0.5102479397556124 0.3386260301221938 0  0.3654513888888889 0.5737847222222222 0  0.6929750044954185 0.1362784921584263 0  0.388576102743835 0.411911725237599 0  0.6091269841269842 0.5942460317460317 0  0.875 0.6875 0  0.427278890279516 0.119889445139758 0  0.8544456845238095 0.5213913690476191 0  0.125 0 0  0 0.125 0  1 0.875 0  0.875 1 0  0.1280008648150532 0.4769292340226777 0  0.2695382451711197 0.3321750950221553 0  0.7031567235715964 0.7447810921428012 0  0.625 0 0  0.375 0 0  0.125 1 0  0.875 0 0  0 0.375 0  0 0.625 0  1 0.375 0  0.375 1 0  1 0.125 0  0 0.875 0  0.625 1 0  1 0.625 0  0.2979288363930608 0.1201429454643536 0  0.410919540229885 0.7484605911330049 0  0.5325041980395562 0.878905151526474 0  0.4831670727569156 0.6331060043826487 0  0.1735997378973042 0.7204747378973043 0  0.2534919507575758 0.5772372159090909 0  0.2633928571428572 0.8876488095238095 0  0.8199404761904761 0.2730654761904762 0  0.75830270586982 0.3919383189517417 0  0.5750282248382511 0.4237522353023667 0  0.6008360210023379 0.2794828358598495 0  0.08163442644334186 0.6821295860397322 0  0.08333333333333333 0.1875 0  0.2028380815996574 0.08844602719988583 0  0.2766521142611967 0.2325436572164097 0  0.90625 0.78125 0  0.890625 0.890625 0  0.7545696325008384 0.8973565441669461 0  0.5625 0.08086590340834317 0  0.09077380952380953 0.09077380952380952 0  0.4610923478694773 0.209034015149656 0  0.7542527598351648 0.5248380520595106 0  0.6459235536037465 0.3619913988405765 0  0.7560381768882634 0.20506142233852 0  0.07073252688172042 0.8125 0  0.0924753097241701 0.9078102849914793 0  0.9292674731182795 0.1875 0  0.9075246902758297 0.09218971500852073 0  0.8125 0.07073252688172045 0  0.2400955776842301 0.7869705776842302 0  0.9121050213379069 0.2781978201831695 0  0.7916878157143976 0.7239689078571988 0  0.9345238095238094 0.4375 0  0.4375 0.9345238095238095 0  0.3725616989755203 0.6651895248862173 0  0.06536271996350887 0.5625 0  0.9348362560379583 0.5625 0  0.456646798987055 0.8277247094351965 0  0.1875 0.9355758238725954 0  0.6169761231634859 0.6939779188977889 0  0.6226854751147515 0.7827911461419014 0  0.3305695598137626 0.7901697871282585 0  0.5865305325818898 0.5101085479043448 0  0.6622701297028378 0.2177663989757395 0  0.1354166666666667 0.2591702279202279 0  0 0.3125 0  0.2094429575680048 0.3936361846162499 0  0.836666296419157 0.607917407161686 0  0.6875 1 0  0.214261555450504 0.6492551722020035 0  0 0.4375 0  0.07731537126068377 0.40625 0  0.3427725432967068 0.4879566233699599 0  0.3550792513951871 0.3331953632609953 0  0.4462473953896857 0.2887834789342508 0  0.4747801464819794 0.417386052030127 0  0.8229836475148948 0.4443292349237342 0  0.7322605135514757 0.8199240278289671 0  0.6756431877205955 0.5468989748126787 0  0.1968419507215863 0.5194573482612496 0  0.3285590277777778 0.9345238095238095 0  0.8125 1 0  0.4198917601920009 0.5134893045331258 0  0.5232405503206691 0.2595791787880157 0  1 0.9375 0  0.1987510870015086 0.3025185951894431 0  0.5625 1 0  0.6005390654136388 0.9228110509230952 0  0.6411254848194414 0.07704872765442942 0  0.3357233162523242 0.1855113224530532 0  0.6730653396610877 0.6393887462324165 0  0.310966987234063 0.6240019765311626 0  0.7368737836204349 0.07457755202327881 0  0.6192316414418171 0.1485238406378594 0  0.5432429670607106 0.678552703844006 0  0.4754371679695679 0.7103946803120881 0  0.07501324890749672 0.3043839897335739 0  0.5358146975860403 0.5688321463205916 0  0.3115271739500156 0.3982137365971444 0  0.3625191397122174 0.0767854603650549 0  0.5024029442563831 0.1264128223758444 0  0.4375 0 0  0.4699946908887376 0.06379961173775725 0  0.9375 0.71875 0  0.9272105898044465 0.635671179608893 0  0.9375 1 0  0.6690971819568612 0.9331530898202766 0  0.1073454944778885 0.7499206387638554 0  0.8699082999280406 0.2232403652524313 0  0.5773118091863964 0.3548027349159383 0  0.1354166666666667 0.1428571428571428 0  0.3125 0 0  0.8241684193077341 0.9257452995055244 0  0.4352314948354036 0.3586940847489378 0  0.4351301473778832 0.5819726043539077 0  0.8073232928518163 0.3419398170341962 0  0.7775949246947366 0.1298519409204575 0  0.6875 0 0  0.7413513991851041 0.457933324954483 0  0.939453125 0.841796875 0  0.5630355154606987 0.8171875156478349 0  0.9345238095238095 0.3461466592368577 0  0.9375 0 0  1 0.0625 0  0.0625 1 0  0 0.9375 0  0.06552178593177167 0.4969053669623468 0  0.1424866619031703 0.4130277709291224 0  0.1275287182444726 0.5422946908002588 0  0.2637686595586339 0.06413888464529549 0  0.2524263535491086 0.1697437503243817 0  0.7367218397988525 0.6888573970660841 0  0.0625 0 0  0 0.0625 0  0.8463594539285995 0.7578283617857982 0  0.3128751192101563 0.2851997374369947 0  0.4015281788351144 0.1806421385113692 0  0.1910251795116588 0.4553332197174453 0  0.287797471442006 0.5222621440543902 0  0.3962628745986055 0.8097380085535307 0  0.3505895299554843 0.7304878890838692 0  0.5019151500495276 0.9356042615328103 0  0.9374389419410134 0.4999931039076005 0  0.3125 1 0  0.1875 1 0  1 0.5625 0  0.4375 1 0  1 0.3125 0  1 0.4375 0  0.8125 0 0  1 0.1875 0  0.5625 0 0  0.1875 0 0  0 0.1875 0  0 0.5625 0  0 0.6875 0  0 0.8125 0  1 0.6875 0  1 0.8125 0  0.8021696218581627 0.6612893947866073 0  0.06154922295426143 0.6239401126946708 0  0.9359375 0.9359375 0  0.4666158024849896 0.7691515918155014 0  0.2318201265217025 0.7064974250277525 0  0.1565954253579966 0.6635489312486841 0  0.1598132503680848 0.7787147500325552 0  0.3146529991605639 0.8510876378205265 0  0.1461873209418733 0.05982804528877814 0  0.06109554988524315 0.2446551776247686 0  0.8054950308560754 0.5564226538848541 0  0.470541749491976 0.8853316336952531 0  0.6948472567465137 0.4042308563372457 0  0.8802828472348889 0.4658893256343853 0  0.6788075634946739 0.7974194205806069 0  0.2155048659603867 0.2428201584940968 0  0.8131223143423806 0.2132171049028394 0  0.4330798005432235 0.6671274900735726 0  0.6015279126162613 0.2187368078743274 0  0.8061636571464289 0.8703766630361714 0  0.7008230445061776 0.3478568388444072 0  0.8638466246958771 0.3147095987735538 0  0.204801534004265 0.8789209409594009 0  0.2449006736431132 0.9424182882803838 0  0.7611268409371427 0.2643056884799992 0  0.7552800864046191 0.7678006649959446 0  0.5983639638906616 0.864113435029236 0  0.1956559506814437 0.577281203577426 0  0.3527670268164207 0.1320469097565204 0  0.7530364577483248 0.3262386077083089 0  0.4535919187979363 0.4690107087451527 0  0.8824869791666666 0.8336588541666666 0  0.8814453125 0.9451171875 0  0.5582987942628019 0.622421666543858 0  0.6817532446064828 0.6939001801354731 0  0.3830295138888889 0.9450968952922078 0  0.4140603937012541 0.05211333372716105 0  0.5535864501303013 0.3060591985391672 0  0.6560130086346878 0.2729726562211558 0  0.890203140221684 0.5948314305427268 0  0.7043857725999024 0.593980890020804 0  0.5105843922695152 0.8016828014338627 0  0.05365910753708378 0.7315110031682004 0  0.616904573672261 0.4621186633436136 0  0.5338511646455415 0.387875898899613 0  0.5231769258947843 0.4477682463140762 0  0.650302973237622 0.7370722302085519 0  0.3927483139621257 0.4662414504529014 0  0.8034595960585199 0.4972538342758211 0  0.7738337841682438 0.9496376207663251 0  0.7193737507158268 0.954685447650112 0  0.482525916480686 0.5528257169991676 0  0.2533501157346781 0.2809495420003238 0  0.3118487924482243 0.5702930126570319 0  0.6257598847669529 0.4104163315430518 0  0.1354166666666667 0.1955605158730158 0  0.04166666666666666 0.15625 0  0.3956448985530264 0.6174149462065157 0  0.8102897701818546 0.3938784238208349 0  0.2641154190013625 0.8344469561943118 0  0.642852220770013 0.5068794586563659 0  0.05271458179508221 0.355846947336007 0  0.7021551360070266 0.8921457280225779 0  0.5692125776683765 0.1328512638850284 0  0.5206162811937602 0.04865158770992991 0  0.6001838442201555 0.04540556991297563 0  0.2597716608242787 0.4118346398477178 0  0.4040584599473195 0.3179589136784675 0  0.1480337679295207 0.8941560631483065 0  0.1344356707112281 0.9466251177415842 0  0.7114696411829317 0.4983917389078826 0  0.7585704698442475 0.5751926345944629 0  0.2189131956390871 0.04022068508159698 0  0.2476935455192043 0.1123642267635843 0  0.185995005654517 0.1365524537205238 0  0.6223414373308711 0.643380839165121 0  0.5732602596637543 0.7190051747306219 0  0.268358222364537 0.6586246524467934 0  0.3265879848129173 0.2369791782191225 0  0.1267095595787346 0.7034787238999181 0  0.1115202922226038 0.6421997933884982 0  0.3128688392940203 0.07260997451790079 0  0.550724900485678 0.9253360991633187 0  0.7142608810459105 0.2384904702214873 0  0.7045869185243887 0.1871826897887429 0  0.890625 0.734375 0  0.953125 0.765625 0  0.2111812642821677 0.8286209446459138 0  0.9590293078204457 0.09375 0  0.953431269039847 0.1435719386408004 0  0.04097069217955424 0.90625 0  0.04656873096015299 0.8564280613591996 0  0.1078743037981226 0.8541621766048062 0  0.8921256962018773 0.1458378233951939 0  0.8521576979194619 0.1084496634207678 0  0.8655663982740958 0.05464346096571447 0  0.04005659640905543 0.09375 0  0.1001448316533417 0.04246776244228261 
[...]
<PointData  Vectors="f_8394-0-0"> 
<DataArray  type="Float64"  Name="f_8394-0-0"  NumberOfComponents="3" format="ascii">-1.4017344957628568e-02 7.1391963928818161e-03 0.0000000000000000e+00  -8.4386757496430131e-01 1.4899860968055068e-03 0.0000000000000000e+00  -9.1299578128688319e-01 2.5489634000865728e-03 0.0000000000000000e+00  -8.3762717918115492e-01 -1.3162688552408822e-05 0.0000000000000000e+00  -4.8632972023961651e-01 2.9555642471295607e-03 0.0000000000000000e+00  -9.9664354863900051e-01 -5.7559674625028145e-05 0.0000000000000000e+00  -9.9774104454155199e-01 1.7187968424667774e-04 0.0000000000000000e+00  -4.8124400609541773e-01 5.5795183190164299e-03 0.0000000000000000e+00  -8.3835804777024603e-01 -1.7142980013125086e-03 0.0000000000000000e+00  -2.5424251186800606e-01 2.7931892860195429e-03 0.0000000000000000e+00  -2.5495655083967045e-01 3.6965992995311647e-03 0.0000000000000000e+00  -9.4650653123589890e-01 -1.0079779964786706e-03 0.0000000000000000e+00  -6.7412163864450769e-01 4.8554319889861780e-04 0.0000000000000000e+00  -9.4679666177684307e-01 -1.7278709842277751e-03 0.0000000000000000e+00  -6.8421197936772371e-01 -1.0247920060008355e-03 0.0000000000000000e+00  -9.8417252390427545e-01 1.0060849116959591e-03 0.0000000000000000e+00  -9.8550950436654694e-01 6.5873729820165039e-04 0.0000000000000000e+00  -8.4631583504098906e-01 1.4190077243059207e-03 0.0000000000000000e+00  -8.4380475529274235e-01 2.8340925378556592e-03 0.0000000000000000e+00  -5.8092161424211031e-01 -2.4639373399718001e-03 0.0000000000000000e+00  -9.7932045965684356e-01 -9.3524861873328646e-04 0.0000000000000000e+00  -6.6320705847384787e-01 -1.0482288444761401e-03 0.0000000000000000e+00  -9.6346172919357986e-01 5.7664073875610122e-04 0.0000000000000000e+00  -3.5852706298974846e-01 -4.1336886580332632e-03 0.0000000000000000e+00  -9.9874043451861760e-01 2.0878553050496240e-04 0.0000000000000000e+00  -9.4978494108439671e-01 1.0055190302504513e-03 0.0000000000000000e+00  -6.7585156584702633e-01 -1.6245099598251600e-03 0.0000000000000000e+00  -9.5057690185845911e-01 4.7716689974289933e-04 0.0000000000000000e+00  -6.7737132551885204e-01 3.1659667292526783e-03 0.0000000000000000e+00  -8.3625120367048689e-01 -1.5287622177416749e-03 0.0000000000000000e+00  -8.3800174310506725e-01 -2.4286571784279676e-03 0.0000000000000000e+00  -9.1261664768974149e-01 7.2936239317233920e-04 0.0000000000000000e+00  -4.6094936207457293e-01 -1.0851676941247279e-03 0.0000000000000000e+00  -9.9907266265666983e-01 2.0130016923675109e-04 0.0000000000000000e+00  -7.4569275732738971e-01 -3.6149977711218972e-03 0.0000000000000000e+00  -8.1344846240915269e-01 1.6246054680997823e-03 0.0000000000000000e+00  -7.3105061143440131e-01 -2.5548748826177137e-03 0.0000000000000000e+00  -7.1925886741832390e-01 -1.7591115605301074e-03 0.0000000000000000e+00  -9.3138294592827342e-01 -8.5280747808758051e-04 0.0000000000000000e+00  -9.9976566425909075e-01 -5.1568642832400258e-05 0.0000000000000000e+00  -5.2680418778003446e-01 4.1066155198880572e-03 0.0000000000000000e+00  -9.8280149126197824e-01 3.3121078398296727e-04 0.0000000000000000e+00  -1.3313977465601040e-01 4.5746463551277483e-03 0.0000000000000000e+00  -1.1453859167161211e-01 -7.8265305626885190e-04 0.0000000000000000e+00  -9.5431041523428517e-01 1.8212849289500066e-03 0.0000000000000000e+00  -9.5548644285835072e-01 1.1331388998098157e-03 0.0000000000000000e+00  -5.7661807813392085e-01 2.1157658799385581e-03 0.0000000000000000e+00  -5.7025148214743338e-01 -4.7351555785697941e-03 0.0000000000000000e+00  -9.9133988262073514e-01 -4.8651039931102424e-04 0.0000000000000000e+00  -5.9148285691210800e-01 5.7357002162272068e-04 0.0000000000000000e+00  -3.7294476286565037e-01 5.7882749991262916e-03 0.0000000000000000e+00  -8.9897669809070080e-01 -2.2844712888306917e-03 0.0000000000000000e+00  -7.7276063185123822e-01 3.3159676576763886e-03 0.0000000000000000e+00  -3.7263096266987106e-01 5.4636924833136591e-03 0.0000000000000000e+00  -5.9041097444867408e-01 2.3703264376185862e-03 0.0000000000000000e+00  -9.7985737020124297e-01 -1.2015749772237849e-03 0.0000000000000000e+00  -9.7923044735090758e-01 1.8585436742655419e-04 0.0000000000000000e+00  -9.0054506229911646e-01 -2.5116588988260413e-03 0.0000000000000000e+00  -7.6842619872220586e-01 2.6832120513411301e-03 0.0000000000000000e+00  -9.9891952403117701e-01 -5.3062809863664759e-05 0.0000000000000000e+00  -9.9833890248059964e-01 2.9508026657870667e-04 0.0000000000000000e+00  -4.0066957978451084e-01 5.2378269336076783e-03 0.0000000000000000e+00  -9.1452887885399670e-01 -1.3224433549898773e-03 0.0000000000000000e+00  -9.8661987332671397e-01 -9.9103788775678492e-04 0.0000000000000000e+00  -8.9487075262686755e-01 -2.1100613558573400e-03 0.0000000000000000e+00  -7.8482120300951619e-01 2.1665267368562446e-03 0.0000000000000000e+00  -7.4506162293283040e-01 4.7417658473182800e-03 0.0000000000000000e+00  -9.1305781295853417e-01 -2.2412243957468103e-03 0.0000000000000000e+00  -8.8314136183019720e-01 -1.3441301757687318e-03 0.0000000000000000e+00  -9.1308518843443276e-01 1.5630589265378109e-03 0.0000000000000000e+00  -8.4104249930439479e-01 2.5142637812786001e-03 0.0000000000000000e+00  -7.7646695123487941e-01 8.8956907070436575e-04 0.0000000000000000e+00  -6.9183091517462625e-01 -3.5009123590767355e-03 0.0000000000000000e+00  -2.5965325633542613e-01 -5.0414802327050923e-03 0.0000000000000000e+00  -2.7857282858670163e-01 -4.0897484094925551e-03 0.0000000000000000e+00  -4.9409408496039120e-01 3.6356749407009392e-03 0.0000000000000000e+00  -9.9433585485467069e-01 3.7843417148830660e-04 0.0000000000000000e+00  -9.7793137622450477e-01 7.3801062826438267e-04 0.0000000000000000e+00  -9.9716973446264345e-01 1.6311129494506194e-04 0.0000000000000000e+00  -5.9254944464061832e-01 -2.8252051629266695e-03 0.0000000000000000e+00  -1.9058562360586040e-01 3.6764228961311402e-03 0.0000000000000000e+00  -6.1485728550320895e-01 -1.9061021344783935e-03 0.0000000000000000e+00  -9.6030951653113061e-01 7.4264814034563642e-04 0.0000000000000000e+00  -8.4152640121303912e-01 -2.6665618960048931e-03 0.0000000000000000e+00  -8.2405811603633639e-01 -2.5516339591262482e-03 0.0000000000000000e+00  -7.7712084375510437e-01 -2.7239737188466950e-04 0.0000000000000000e+00  -8.4624577889881569e-01 -1.5645015826221461e-03 0.0000000000000000e+00  -9.0214169799207333e-01 1.5354567194618141e-03 0.0000000000000000e+00  -8.3556137426336430e-01 -2.1696276080732657e-03 0.0000000000000000e+00  -7.7696913199715079e-01 3.6712931366721380e-03 0.0000000000000000e+00  -8.5238666258406515e-01 -1.2403154953917195e-03 0.0000000000000000e+00  -9.2627101120938782e-01 -1.7172306166524931e-03 0.0000000000000000e+00  -9.9888631501426040e-01 1.3509749616258393e-04 0.0000000000000000e+00  -9.8159916592579299e-01 5.4882466296585219e-04 0.0000000000000000e+00  -9.8235878695524759e-01 3.1575618230669485e-04 0.0000000000000000e+00  -8.5910886477990589e-01 -1.8706218761199989e-03 0.0000000000000000e+00  -5.8136872678919149e-01 -3.0653210695394950e-03 0.0000000000000000e+00  -9.9767069365328764e-01 7.3664169407440527e-06 0.0000000000000000e+00  -9.6151488926252959e-01 3.4465068942979293e-04 0.0000000000000000e+00  -8.9864682075900859e-01 -2.2059229568050787e-03 0.0000000000000000e+00  -9.6549921883931777e-01 -1.0450899238007016e-03 0.0000000000000000e+00  -9.8440927338941431e-01 -5.7559246714530832e-04 0.0000000000000000e+00  -9.0424453465830812e-01 1.9264654334560927e-03 0.0000000000000000e+00  -8.9369091483686547e-01 1.1771070098315350e-03 0.0000000000000000e+00  -7.6649594594157500e-01 -3.2503116224352757e-03 0.0000000000000000e+00  -3.8700245197061922e-01 2.7540987215873558e-03 0.0000000000000000e+00  -3.1023765197654118e-01 5.7992029572791481e-03 0.0000000000000000e+00  -5.7120543354416742e-01 4.3281081255144849e-03 0.0000000000000000e+00  -9.9101227514312917e-01 -2.0349521623241884e-04 0.0000000000000000e+00  -9.9371245301107181e-01 6.0438495920100976e-04 0.0000000000000000e+00  -7.5498802103851581e-01 -3.2127017346762245e-04 0.0000000000000000e+00  -4.1609215612328959e-01 -2.9025463012954389e-03 0.0000000000000000e+00  -4.5975273049254844e-01 6.0214837380112574e-05 0.0000000000000000e+00  -7.3260253912166107e-01 -1.4673901596348737e-03 0.0000000000000000e+00  -6.3628467347274431e-01 3.4645898448061596e-03 0.0000000000000000e+00  -6.7659035812256696e-01 9.2625064960838444e-04 0.0000000000000000e+00  -7.8494128375024719e-01 1.7015560599942248e-03 0.0000000000000000e+00  -9.5097910866081736e-01 -9.1154148314154249e-04 0.0000000000000000e+00  -9.9999521770490141e-01 -2.4561401153033735e-05 0.0000000000000000e+00  -9.4115467224834948e-01 1.2992576443560666e-03 0.0000000000000000e+00  -6.5373377113590614e-01 4.7361160094659405e-03 0.0000000000000000e+00  -9.5207570134962705e-01 -2.0486050728850957e-03 0.0000000000000000e+00  -9.7354175218136108e-01 9.5223511621689294e-04 0.0000000000000000e+00  -8.0989048001105879e-01 3.0411080897345677e-03 0.0000000000000000e+00  -7.0027489240638996e-01 -1.8373657462687210e-03 0.0000000000000000e+00  -9.3378383373112361e-01 2.3126539269122115e-03 0.0000000000000000e+00  -4.8789429425946784e-01 3.4322113596060924e-03 0.0000000000000000e+00  -9.9992498297474475e-01 -4.4149579080166035e-05 0.0000000000000000e+00  -9.9941442449254059e-01 8.7743156448993886e-05 0.0000000000000000e+00  -6.6265662418424998e-01 1.8597224962808578e-03 0.0000000000000000e+00  -5.0498814410603932e-01 -6.3163082200980436e-03 0.0000000000000000e+00  -9.6783358173426626e-01 -1.1874255555638785e-03 0.0000000000000000e+00  -7.9861687192838582e-01 -1.2193614976112599e-03 0.0000000000000000e+00  -7.3080635868096266e-01 3.7987297646814300e-03 0.0000000000000000e+00  -7.0015918164373891e-01 9.8308491920279240e-04 0.0000000000000000e+00  -9.4314922844745952e-01 1.2089377397418999e-03 0.0000000000000000e+00  -9.3133445727526665e-01 1.8465416310688987e-03 0.0000000000000000e+00  -3.6632680829982389e-01 2.8665832642218031e-03 0.0000000000000000e+00  -8.9770970407461748e-01 6.5761120577323418e-04 0.0000000000000000e+00  -6.5852838470503894e-01 3.2732305174814624e-03 0.0000000000000000e+00  -4.1869750380331577e-01 -3.6408887648033406e-03 0.0000000000000000e+00  -5.9506254184187268e-01 3.2340898267533727e-03 0.0000000000000000e+00  -4.3215017746935136e-01 4.3944024478814736e-03 0.0000000000000000e+00  -5.0682824983120978e-01 -4.3238752907767131e-03 0.0000000000000000e+00  -9.9680058830907470e-01 2.2094163409330791e-04 0.0000000000000000e+00  -9.9969038559240686e-01 -5.3564635794645099e-05 0.0000000000000000e+00  -9.3641264519099721e-01 -1.2249770620164447e-04 0.0000000000000000e+00  -9.9922043274962125e-01 -1.9979450120462955e-04 0.0000000000000000e+00  -7.5234987062453718e-01 -2.6471560459273846e-03 0.0000000000000000e+00  -8.8697319732123592e-01 -1.4491574964854426e-03 0.0000000000000000e+00  -8.0988888124346636e-01 1.0493696940776284e-03 0.0000000000000000e+00  -2.7143003856217729e-01 -2.1957959117846482e-04 0.0000000000000000e+00  -3.1430282098592510e-01 2.8342891080732693e-03 0.0000000000000000e+00  -9.8218519469645116e-01 -8.5516730866946888e-04 0.0000000000000000e+00  -7.1962277603578351e-01 1.6462826561424726e-03 0.0000000000000000e+00  -8.5431159951311875e-01 2.7541616403722324e-03 0.0000000000000000e+00  -9.1662647172613088e-01 9.3437084866709874e-04 0.0000000000000000e+00  -7.9338920541147673e-01 3.1114358140924558e-03 0.0000000000000000e+00  -6.4004254619606982e-01 2.9477210860398189e-03 0.0000000000000000e+00  -9.2820233177585310e-01 -1.2843032306399382e-03 0.0000000000000000e+00  -9.7566708657717616e-01 -7.5224737027512756e-04 0.0000000000000000e+00  -9.8051961748477579e-01 -1.1959159530852137e-03 0.0000000000000000e+00  -9.5538032121992944e-01 -1.7662252404821999e-03 0.0000000000000000e+00  -8.1027393729692121e-01 3.2719490001944518e-03 0.0000000000000000e+00  -8.6969747040743484e-01 -2.1458489281223070e-03 0.0000000000000000e+00  -8.7118681607595394e-01 -2.8459465737058487e-03 0.0000000000000000e+00  -8.0015037407518574e-01 -3.3239110096094926e-04 0.0000000000000000e+00  -5.2718614223753213e-01 -1.4252155803045272e-03 0.0000000000000000e+00  -5.3214766958065418e-01 -1.0458175735545139e-03 0.0000000000000000e+00  -6.2628809311490463e-01 -3.1072629922581905e-03 0.0000000000000000e+00  -3.1691068587338694e-01 1.9789901427210172e-03 0.0000000000000000e+00  -4.1942442301294136e-01 3.4668325926487942e-03 0.0000000000000000e+00  -9.9117850081223335e-01 2.3661211758230216e-04 0.0000000000000000e+00  -7.1032199834388382e-02 5.2890977018056340e-03 0.0000000000000000e+00  -5.3850534146461515e-02 -1.5441825052142297e-03 0.0000000000000000e+00  -9.9956490255199404e-01 2.0161219703618283e-04 0.0000000000000000e+00  -5.5752490245890884e-01 -4.7921569045861756e-03 0.0000000000000000e+00  -5.5854294324888476e-01 1.1823240910455168e-03 0.0000000000000000e+00  -5.9495370050472218e-01 -4.8642357423971383e-03 0.0000000000000000e+00  -7.2411874771339724e-01 -3.6045180022565015e-03 0.0000000000000000e+00  -9.3185935238814266e-01 -1.1008211725932471e-03 0.0000000000000000e+00  -8.8690575909513725e-01 -1.4023535797735853e-04 0.0000000000000000e+00  -9.9121490024357950e-01 -5.2235310038706295e-04 0.0000000000000000e+00  -9.9199575245145488e-01 5.2158530481682952e-04 0.0000000000000000e+00  -9.6528977726907406e-01 -6.0600595575355243e-04 0.0000000000000000e+00  -9.2415944503549019e-01 -2.1812320072381874e-03 0.0000000000000000e+00  -9.9964015194699318e-01 -3.1419771714835676e-05 0.0000000000000000e+00  -9.8999302546759749e-01 2.2046054465622535e-04 0.0000000000000000e+00  -9.6519752504242362e-01 -1.4319301030314979e-03 0.0000000000000000e+00  -9.9092371312098104e-01 -5.9187556310322242e-04 0.0000000000000000e+00  -7.2992274455396566e-01 2.4171657547341339e-03 0.0000000000000000e+00  -9.2421125191059827e-01 -1.8079166483517262e-03 0.0000000000000000e+00  -5.4017995323951418e-01 5.0716509806303933e-03 0.0000000000000000e+00  -1.9459694885497414e-01 2.5155866473028422e-03 0.0000000000000000e+00  -1.9405825007228034e-01 2.5473782300260289e-03 0.0000000000000000e+00  -5.2330973473689890e-01 -3.2633011640550991e-04 0.0000000000000000e+00  -6.2861204895299472e-01 -1.8236578497218825e-03 0.0000000000000000e+00  -7.2665226286240436e-01 2.6039305130064368e-03 0.0000000000000000e+00  -9.9308804154012165e-01 6.6210894756985050e-04 0.0000000000000000e+00  -9.6805174256140591e-01 -6.0396625074565780e-04 0.0000000000000000e+00  -9.9453998084452666e-01 4.7669846390546722e-04 0.0000000000000000e+00  -6.3988723918403301e-01 -8.8409846878244325e-04 0.0000000000000000e+00  -9.5223612882215747e-01 -5.0653402267603065e-04 0.0000000000000000e+00  -9.4764490991870731e-01 1.1104772286160136e-03 0.0000000000000000e+00  -8.1101143224585870e-01 2.9088781025006227e-03 0.0000000000000000e+00  -7.3358582545773343e-01 -3.9498095853025550e-03 0.0000000000000000e+00  -8.1243520683784043e-01 -5.1361129864219146e-04 0.0000000000000000e+00  -9.2179319924161951e-01 1.8226291220667656e-03 0.0000000000000000e+00  -2.1189504420832408e-01 5.4299314642151375e-03 0.0000000000000000e+00  -2.9325552969471591e-01 -4.2500678964515481e-03 0.0000000000000000e+00  -9.8013662730130324e-01 5.4558895049600098e-04 0.0000000000000000e+00  -9.7885037669935793e-01 1.1755947563748537e-03 0.0000000000000000e+00  -8.8653893273045814e-01 -1.4005741482628897e-03 0.0000000000000000e+00  -9.7690606339656560e-01 5.1306436859333004e-04 0.0000000000000000e+00  -9.9477701619835635e-01 -4.7470709110652987e-04 0.0000000000000000e+00  -4.5044179977978382e-01 3.3892378132774660e-03 0.0000000000000000e+00  -8.5948356561274153e-01 2.1555474879300096e-03 0.0000000000000000e+00  -8.9601477163281307e-01 3.4415793988609722e-03 0.0000000000000000e+00  -7.2551005887131415e-01 -4.0716858483949570e-04 0.0000000000000000e+00  -9.9355221010611872e-01 -3.9539528564430659e-04 0.0000000000000000e+00  -8.7136218460657489e-01 1.4343467381552344e-03 0.0000000000000000e+00  -9.2669899811513801e-01 1.0375405247004810e-03 0.0000000000000000e+00  -8.8129933650546544e-01 1.0561375891874475e-03 0.0000000000000000e+00  -9.3089258673126318e-01 1.3526175016125297e-03 0.0000000000000000e+00  -8.5052715453011474e-01 -2.6202598909011998e-03 0.0000000000000000e+00  -9.9914602151895804e-01 1.4623925329104726e-04 0.0000000000000000e+00  -9.9470254202752395e-01 -2.5907235078193036e-04 0.0000000000000000e+00  -7.0456035092712588e-01 1.6059800506840194e-03 0.0000000000000000e+00  -4.6921996501005631e-01 4.8347848079621503e-03 0.0000000000000000e+00  -8.7701284210049202e-01 -6.8658519330472290e-04 0.0000000000000000e+00  -8.0177297870124931e-01 2.6411571086573105e-03 0.0000000000000000e+00  -9.8785320868457283e-01 -7.0431840753670816e-04 0.0000000000000000e+00  -9.6691097940847470e-01 1.0267233043423640e-03 0.0000000000000000e+00  -9.2234763662931407e-01 -2.5063290148967798e-03 0.0000000000000000e+00  -9.7886793079945755e-01 -6.7277065744236753e-04 0.0000000000000000e+00  -9.7325473682411645e-01 9.8327858916837096e-04 0.0000000000000000e+00  -4.6027744258282699e-01 2.6548936242108412e-03 0.0000000000000000e+00  -7.6349698316527037e-01 1.6106030418162470e-03 0.0000000000000000e+00  -8.0622139312478469e-01 3.4390709094381799e-03 0.0000000000000000e+00  -9.9675698374335053e-01 4.1219224429073220e-04 0.0000000000000000e+00  -9.6610361314619353e-01 8.9133799869751951e-04 0.0000000000000000e+00  -9.6665526936111257e-01 -1.1144701430194637e-03 0.0000000000000000e+00  -7.1181629881017150e-01 1.7146951485629280e-03 0.0000000000000000e+00  -8.8553734997638700e-01 1.2380971799168528e-03 0.0000000000000000e+00  -7.9179964801744707e-01 -3.6621996193658690e-03 0.0000000000000000e+00  -8.2106275920230432e-01 -2.6388686539770001e-03 0.0000000000000000e+00  -9.8175618159935873e-01 -6.6648631284738080e-04 0.0000000000000000e+00  -7.5143615922242013e-01 1.5114887294821015e-03 0.0000000000000000e+00  -9.6242941159522111e-01 1.4437976037731393e-03 0.0000000000000000e+00  -9.8933839517869382e-01 1.7213655115710935e-04 0.0000000000000000e+00  -9.9551288526634485e-01 1.3222628305220585e-04 0.0000000000000000e+00  -8.6025559077743241e-01 1.9988633652707338e-03 0.0000000000000000e+00  -5.0554490788693052e-01 -7.5207764097817709e-04 0.0000000000000000e+00  -7.6585681581020359e-01 -5.6961422415047203e-04 0.0000000000000000e+00  -8.6251025192149000e-01 2.9063325859804978e-03 0.0000000000000000e+00  -3.1609571477447113e-01 -1.0531109613962641e-03 0.0000000000000000e+00  -1.9345982721598892e-01 -4.2502823693830044e-03 0.0000000000000000e+00  -8.4377423959527509e-01 -2.1484959177701102e-03 0.0000000000000000e+00  -9.3664739170503819e-01 8.6647363755866513e-04 0.0000000000000000e+00  -8.8718942976101878e-01 -6.6901764516655304e-04 0.0000000000000000e+00  -9.0885506150360285e-01 -8.6912266082561640e-04 0.0000000000000000e+00  -4.0547821330340822e-01 3.8991083003893628e-03 0.0000000000000000e+00  -9.9974917294143961e-01 1.6469922367146062e-04 0.0000000000000000e+00  -6.4848753759035205e-01 1.6156353880933949e-03 0.0000000000000000e+00  -5.3309318636396552e-01 -3.1354840207294954e-03 0.0000000000000000e+00  -6.0307603277201083e-01 -2.6382140100180557e-03 0.0000000000000000e+00  -6.1537154603343114e-01 -2.3625717817878922e-03 0.0000000000000000e+00  -6.5505449328841614e-01 -4.3530662816930188e-03 0.0000000000000000e+00  -8.6804754958450636e-01 1.4088610804086077e-03 0.0000000000000000e+00  -8.8334968505589651e-01 -2.3134046460800417e-03 0.0000000000000000e+00  -9.3240054379551551e-01 -8.4056493635902008e-04 0.0000000000000000e+00  -9.7012726637805224e-01 -6.5342036374972656e-04 0.0000000000000000e+00  -2.5520287931610364e-01 1.5457491714258309e-03 0.0000000000000000e+00  -3.4936693410607211e-01 1.8899309906574300e-03 0.0000000000000000e+00  -3.1262568430022603e-01 -1.7204873762242112e-03 0.0000000000000000e+00  -9.5696764250116439e-01 8.1780373849543730e-04 0.0000000000000000e+00  -9.5919421835701391e-01 -2.2658226349392407e-04 0.0000000000000000e+00  -7.9683767090653412e-01 -3.0815054727232616e-03 0.0000000000000000e+00  -5.4114111