<?xml version="1.0"?>
<VTKFile type="UnstructuredGrid"  version="0.1"  >
<UnstructuredGrid>
<Piece  NumberOfPoints="1385" NumberOfCells="2640">
<Points>
<DataArray  type="Float64"  NumberOfComponents="3"  format="ascii">0 0 0  1 0 0  1 1 0  0 1 0  0.5 0 0  1 0.5 0  0.5 1 0  0 0.5 0  0.5 0.5 0  0 0.25 0  0.25 0 0  0.25 1 0  0 0.75 0  1 0.25 0  0.75 0 0  1 0.75 0  0.75 1 0  0.7083333333333333 0.2916666666666667 0  0.2916666666666666 0.7083333333333334 0  0.375 0.25 0  0.75 0.625 0  0.2569444444444444 0.4652777777777778 0  0.5366379310344828 0.7535919540229885 0  0.1875 0.1875 0  0.8125 0.8125 0  0.869047619047619 0.375 0  0.1450441919191919 0.6052714646464646 0  0.375 0.8690476190476191 0  0.5526960784313725 0.1825980392156862 0  0.8385416666666666 0.1614583333333334 0  0.1614583333333333 0.8385416666666667 0  0.6736111111111112 0.4652777777777778 0  0.1367521367521368 0.3477564102564102 0  0.6570970491253563 0.8648656830417855 0  0.5102479397556124 0.3386260301221938 0  0.3654513888888889 0.5737847222222222 0  0.6929750044954185 0.1362784921584263 0  0.388576102743835 0.411911725237599 0  0.6091269841269842 0.5942460317460317 0  0.875 0.6875 0  0.427278890279516 0.119889445139758 0  0.8544456845238095 0.5213913690476191 0  0.125 0 0  0 0.125 0  1 0.875 0  0.875 1 0  0.1280008648150532 0.4769292340226777 0  0.2695382451711197 0.3321750950221553 0  0.7031567235715964 0.7447810921428012 0  0.625 0 0  0.375 0 0  0.125 1 0  0.875 0 0  0 0.375 0  0 0.625 0  1 0.375 0  0.375 1 0  1 0.125 0  0 0.875 0  0.625 1 0  1 0.625 0  0.2979288363930608 0.1201429454643536 0  0.410919540229885 0.7484605911330049 0  0.5325041980395562 0.878905151526474 0  0.4831670727569156 0.6331060043826487 0  0.1735997378973042 0.7204747378973043 0  0.2534919507575758 0.5772372159090909 0  0.2633928571428572 0.8876488095238095 0  0.8199404761904761 0.2730654761904762 0  0.75830270586982 0.3919383189517417 0  0.5750282248382511 0.4237522353023667 0  0.6008360210023379 0.2794828358598495 0  0.08163442644334186 0.6821295860397322 0  0.08333333333333333 0.1875 0  0.2028380815996574 0.08844602719988583 0  0.2766521142611967 0.2325436572164097 0  0.90625 0.78125 0  0.890625 0.890625 0  0.7545696325008384 0.8973565441669461 0  0.5625 0.08086590340834317 0  0.09077380952380953 0.09077380952380952 0  0.4610923478694773 0.209034015149656 0  0.7542527598351648 0.5248380520595106 0  0.6459235536037465 0.3619913988405765 0  0.7560381768882634 0.20506142233852 0  0.07073252688172042 0.8125 0  0.0924753097241701 0.9078102849914793 0  0.9292674731182795 0.1875 0  0.9075246902758297 0.09218971500852073 0  0.8125 0.07073252688172045 0  0.2400955776842301 0.7869705776842302 0  0.9121050213379069 0.2781978201831695 0  0.7916878157143976 0.7239689078571988 0  0.9345238095238094 0.4375 0  0.4375 0.9345238095238095 0  0.3725616989755203 0.6651895248862173 0  0.06536271996350887 0.5625 0  0.9348362560379583 0.5625 0  0.456646798987055 0.8277247094351965 0  0.1875 0.9355758238725954 0  0.6169761231634859 0.6939779188977889 0  0.6226854751147515 0.7827911461419014 0  0.3305695598137626 0.7901697871282585 0  0.5865305325818898 0.5101085479043448 0  0.6622701297028378 0.2177663989757395 0  0.1354166666666667 0.2591702279202279 0  0 0.3125 0  0.2094429575680048 0.3936361846162499 0  0.836666296419157 0.607917407161686 0  0.6875 1 0  0.214261555450504 0.6492551722020035 0  0 0.4375 0  0.07731537126068377 0.40625 0  0.3427725432967068 0.4879566233699599 0  0.3550792513951871 0.3331953632609953 0  0.4462473953896857 0.2887834789342508 0  0.4747801464819794 0.417386052030127 0  0.8229836475148948 0.4443292349237342 0  0.7322605135514757 0.8199240278289671 0  0.6756431877205955 0.5468989748126787 0  0.1968419507215863 0.5194573482612496 0  0.3285590277777778 0.9345238095238095 0  0.8125 1 0  0.4198917601920009 0.5134893045331258 0  0.5232405503206691 0.2595791787880157 0  1 0.9375 0  0.1987510870015086 0.3025185951894431 0  0.5625 1 0  0.6005390654136388 0.9228110509230952 0  0.6411254848194414 0.07704872765442942 0  0.3357233162523242 0.1855113224530532 0  0.6730653396610877 0.6393887462324165 0  0.310966987234063 0.6240019765311626 0  0.7368737836204349 0.07457755202327881 0  0.6192316414418171 0.1485238406378594 0  0.5432429670607106 0.678552703844006 0  0.4754371679695679 0.7103946803120881 0  0.07501324890749672 0.3043839897335739 0  0.5358146975860403 0.5688321463205916 0  0.3115271739500156 0.3982137365971444 0  0.3625191397122174 0.0767854603650549 0  0.5024029442563831 0.1264128223758444 0  0.4375 0 0  0.4699946908887376 0.06379961173775725 0  0.9375 0.71875 0  0.9272105898044465 0.635671179608893 0  0.9375 1 0  0.6690971819568612 0.9331530898202766 0  0.1073454944778885 0.7499206387638554 0  0.8699082999280406 0.2232403652524313 0  0.5773118091863964 0.3548027349159383 0  0.1354166666666667 0.1428571428571428 0  0.3125 0 0  0.8241684193077341 0.9257452995055244 0  0.4352314948354036 0.3586940847489378 0  0.4351301473778832 0.5819726043539077 0  0.8073232928518163 0.3419398170341962 0  0.7775949246947366 0.1298519409204575 0  0.6875 0 0  0.7413513991851041 0.457933324954483 0  0.939453125 0.841796875 0  0.5630355154606987 0.8171875156478349 0  0.9345238095238095 0.3461466592368577 0  0.9375 0 0  1 0.0625 0  0.0625 1 0  0 0.9375 0  0.06552178593177167 0.4969053669623468 0  0.1424866619031703 0.4130277709291224 0  0.1275287182444726 0.5422946908002588 0  0.2637686595586339 0.06413888464529549 0  0.2524263535491086 0.1697437503243817 0  0.7367218397988525 0.6888573970660841 0  0.0625 0 0  0 0.0625 0  0.8463594539285995 0.7578283617857982 0  0.3128751192101563 0.2851997374369947 0  0.4015281788351144 0.1806421385113692 0  0.1910251795116588 0.4553332197174453 0  0.287797471442006 0.5222621440543902 0  0.3962628745986055 0.8097380085535307 0  0.3505895299554843 0.7304878890838692 0  0.5019151500495276 0.9356042615328103 0  0.9374389419410134 0.4999931039076005 0  0.3125 1 0  0.1875 1 0  1 0.5625 0  0.4375 1 0  1 0.3125 0  1 0.4375 0  0.8125 0 0  1 0.1875 0  0.5625 0 0  0.1875 0 0  0 0.1875 0  0 0.5625 0  0 0.6875 0  0 0.8125 0  1 0.6875 0  1 0.8125 0  0.8021696218581627 0.6612893947866073 0  0.06154922295426143 0.6239401126946708 0  0.9359375 0.9359375 0  0.4666158024849896 0.7691515918155014 0  0.2318201265217025 0.7064974250277525 0  0.1565954253579966 0.6635489312486841 0  0.1598132503680848 0.7787147500325552 0  0.3146529991605639 0.8510876378205265 0  0.1461873209418733 0.05982804528877814 0  0.06109554988524315 0.2446551776247686 0  0.8054950308560754 0.5564226538848541 0  0.470541749491976 0.8853316336952531 0  0.6948472567465137 0.4042308563372457 0  0.8802828472348889 0.4658893256343853 0  0.6788075634946739 0.7974194205806069 0  0.2155048659603867 0.2428201584940968 0  0.8131223143423806 0.2132171049028394 0  0.4330798005432235 0.6671274900735726 0  0.6015279126162613 0.2187368078743274 0  0.8061636571464289 0.8703766630361714 0  0.7008230445061776 0.3478568388444072 0  0.8638466246958771 0.3147095987735538 0  0.204801534004265 0.8789209409594009 0  0.2449006736431132 0.9424182882803838 0  0.7611268409371427 0.2643056884799992 0  0.7552800864046191 0.7678006649959446 0  0.5983639638906616 0.864113435029236 0  0.1956559506814437 0.577281203577426 0  0.3527670268164207 0.1320469097565204 0  0.7530364577483248 0.3262386077083089 0  0.4535919187979363 0.4690107087451527 0  0.8824869791666666 0.8336588541666666 0  0.8814453125 0.9451171875 0  0.5582987942628019 0.622421666543858 0  0.6817532446064828 0.6939001801354731 0  0.3830295138888889 0.9450968952922078 0  0.4140603937012541 0.05211333372716105 0  0.5535864501303013 0.3060591985391672 0  0.6560130086346878 0.2729726562211558 0  0.890203140221684 0.5948314305427268 0  0.7043857725999024 0.593980890020804 0  0.5105843922695152 0.8016828014338627 0  0.05365910753708378 0.7315110031682004 0  0.616904573672261 0.4621186633436136 0  0.5338511646455415 0.387875898899613 0  0.5231769258947843 0.4477682463140762 0  0.650302973237622 0.7370722302085519 0  0.3927483139621257 0.4662414504529014 0  0.8034595960585199 0.4972538342758211 0  0.7738337841682438 0.9496376207663251 0  0.7193737507158268 0.954685447650112 0  0.482525916480686 0.5528257169991676 0  0.2533501157346781 0.2809495420003238 0  0.3118487924482243 0.5702930126570319 0  0.6257598847669529 0.4104163315430518 0  0.1354166666666667 0.1955605158730158 0  0.04166666666666666 0.15625 0  0.3956448985530264 0.6174149462065157 0  0.8102897701818546 0.3938784238208349 0  0.2641154190013625 0.8344469561943118 0  0.642852220770013 0.5068794586563659 0  0.05271458179508221 0.355846947336007 0  0.7021551360070266 0.8921457280225779 0  0.5692125776683765 0.1328512638850284 0  0.5206162811937602 0.04865158770992991 0  0.6001838442201555 0.04540556991297563 0  0.2597716608242787 0.4118346398477178 0  0.4040584599473195 0.3179589136784675 0  0.1480337679295207 0.8941560631483065 0  0.1344356707112281 0.9466251177415842 0  0.7114696411829317 0.4983917389078826 0  0.7585704698442475 0.5751926345944629 0  0.2189131956390871 0.04022068508159698 0  0.2476935455192043 0.1123642267635843 0  0.185995005654517 0.1365524537205238 0  0.6223414373308711 0.643380839165121 0  0.5732602596637543 0.7190051747306219 0  0.268358222364537 0.6586246524467934 0  0.3265879848129173 0.2369791782191225 0  0.1267095595787346 0.7034787238999181 0  0.1115202922226038 0.6421997933884982 0  0.3128688392940203 0.07260997451790079 0  0.550724900485678 0.9253360991633187 0  0.7142608810459105 0.2384904702214873 0  0.7045869185243887 0.1871826897887429 0  0.890625 0.734375 0  0.953125 0.765625 0  0.2111812642821677 0.8286209446459138 0  0.9590293078204457 0.09375 0  0.953431269039847 0.1435719386408004 0  0.04097069217955424 0.90625 0  0.04656873096015299 0.8564280613591996 0  0.1078743037981226 0.8541621766048062 0  0.8921256962018773 0.1458378233951939 0  0.8521576979194619 0.1084496634207678 0  0.8655663982740958 0.05464346096571447 0  0.04005659640905543 0.09375 0  0.1001448316533417 0.04246776244228261 
[...]
<PointData  Vectors="f_8394-0-1"> 
<DataArray  type="Float64"  Name="f_8394-0-1"  NumberOfComponents="3" format="ascii">4.2169591857513164e-03 -1.7462719841443555e-02 0.0000000000000000e+00  1.4813628484059284e-03 -8.4216660056238768e-01 0.0000000000000000e+00  2.3952474438203950e-03 -9.1332275640787897e-01 0.0000000000000000e+00  1.1484962336670828e-05 -8.4555802962098670e-01 0.0000000000000000e+00  3.0515074327695790e-03 -4.8575703651674157e-01 0.0000000000000000e+00  -1.3708302858916888e-04 -9.9695314621842857e-01 0.0000000000000000e+00  9.8426375302662628e-05 -9.9790286523082650e-01 0.0000000000000000e+00  5.2728890450792210e-03 -4.8444655611412418e-01 0.0000000000000000e+00  -2.1257473809342953e-03 -8.3678028854780684e-01 0.0000000000000000e+00  1.6740441624278520e-03 -2.5580209717991054e-01 0.0000000000000000e+00  4.0921380932281148e-03 -2.5502666683157421e-01 0.0000000000000000e+00  -9.8299459268633149e-04 -9.4621957850552929e-01 0.0000000000000000e+00  1.0308686152192485e-03 -6.8652949329195068e-01 0.0000000000000000e+00  -1.7679643007929569e-03 -9.4626996657499107e-01 0.0000000000000000e+00  -1.6309714724520030e-03 -6.7463678887530321e-01 0.0000000000000000e+00  1.0630252829636477e-03 -9.8555725275577521e-01 0.0000000000000000e+00  6.4337564196455949e-04 -9.8388677817404879e-01 0.0000000000000000e+00  1.2884667569748043e-03 -8.4643283464827446e-01 0.0000000000000000e+00  3.3741906844289016e-03 -8.4581223681463724e-01 0.0000000000000000e+00  -2.2243039329878089e-03 -5.8026870085901017e-01 0.0000000000000000e+00  -7.7295942849558985e-04 -9.7987887495277837e-01 0.0000000000000000e+00  6.4942386790445283e-07 -6.5527840584626074e-01 0.0000000000000000e+00  1.0046397565176557e-03 -9.6383532730829247e-01 0.0000000000000000e+00  -4.1064626116264977e-03 -3.5812225630440481e-01 0.0000000000000000e+00  3.1813534297708834e-04 -9.9874387323700509e-01 0.0000000000000000e+00  8.5558445630735946e-04 -9.5084752047178656e-01 0.0000000000000000e+00  -1.5188412296463782e-03 -6.7520691350727446e-01 0.0000000000000000e+00  8.2531807584196315e-04 -9.5016512529582275e-01 0.0000000000000000e+00  3.0528292489017395e-03 -6.6897773853153086e-01 0.0000000000000000e+00  -1.7581339274581852e-03 -8.4678067996458450e-01 0.0000000000000000e+00  -2.2833493722003717e-03 -8.3797381530642401e-01 0.0000000000000000e+00  4.1038934504483704e-04 -9.1254561586037519e-01 0.0000000000000000e+00  -1.3603421071441413e-03 -4.7052992674700606e-01 0.0000000000000000e+00  1.9888979278936958e-04 -9.9914730526702566e-01 0.0000000000000000e+00  -4.3606248268541481e-03 -7.4607428267324472e-01 0.0000000000000000e+00  1.3167962029170255e-03 -8.1277737568025210e-01 0.0000000000000000e+00  -2.2453943080210648e-03 -7.3212005305870065e-01 0.0000000000000000e+00  -1.8151416796785558e-03 -7.1406982656714835e-01 0.0000000000000000e+00  -8.2408828341827556e-04 -9.3306104094683662e-01 0.0000000000000000e+00  -6.5796303265974743e-05 -9.9997556894157902e-01 0.0000000000000000e+00  4.4787339255563247e-03 -5.2875957608212842e-01 0.0000000000000000e+00  3.4710562112771903e-04 -9.8272496026947265e-01 0.0000000000000000e+00  4.6003420557067069e-03 -1.2716849506093317e-01 0.0000000000000000e+00  -1.1616954160478810e-04 -1.3075636088125983e-01 0.0000000000000000e+00  1.9266378335398571e-03 -9.5674298234253152e-01 0.0000000000000000e+00  1.1156394850443396e-03 -9.5560817677226728e-01 0.0000000000000000e+00  3.1410341756796245e-03 -5.7442391450224817e-01 0.0000000000000000e+00  -4.2336425943091394e-03 -5.5893841478870177e-01 0.0000000000000000e+00  -3.9046877002926750e-04 -9.9125444495474324e-01 0.0000000000000000e+00  1.8510751440469764e-03 -5.9094662148070631e-01 0.0000000000000000e+00  5.9380908254140219e-03 -3.6872852295847269e-01 0.0000000000000000e+00  -2.2985341854347419e-03 -9.0059627208450965e-01 0.0000000000000000e+00  3.4036953840227424e-03 -7.7024150029257743e-01 0.0000000000000000e+00  5.7661728053184369e-03 -3.7655034167917156e-01 0.0000000000000000e+00  1.6683477623493290e-03 -5.9054745667149178e-01 0.0000000000000000e+00  -1.2612222473432633e-03 -9.7905457815687302e-01 0.0000000000000000e+00  1.5058627132576163e-04 -9.8308485132912982e-01 0.0000000000000000e+00  -2.5577823120815912e-03 -8.9943793287346185e-01 0.0000000000000000e+00  2.8782778828401190e-03 -7.7233507830899117e-01 0.0000000000000000e+00  1.1182414624721915e-04 -9.9878559750205442e-01 0.0000000000000000e+00  2.6786917189125514e-04 -9.9875744791112542e-01 0.0000000000000000e+00  4.3084607087290616e-03 -4.1635146456215960e-01 0.0000000000000000e+00  -1.0072039644440922e-03 -9.1475594738100285e-01 0.0000000000000000e+00  -1.0124013515183661e-03 -9.8683759060697751e-01 0.0000000000000000e+00  -2.1102259420055780e-03 -8.9566742657461507e-01 0.0000000000000000e+00  2.2063872146475400e-03 -7.8437250229094180e-01 0.0000000000000000e+00  5.1450202501578945e-03 -7.4101238347047815e-01 0.0000000000000000e+00  -2.0467914949757748e-03 -9.0856984435581201e-01 0.0000000000000000e+00  -8.0261941245034218e-04 -8.8303894133172778e-01 0.0000000000000000e+00  1.1651339366521851e-03 -9.1622473116914560e-01 0.0000000000000000e+00  2.5811756669384955e-03 -8.4551657307680328e-01 0.0000000000000000e+00  7.2148151746076472e-04 -7.7703356698304804e-01 0.0000000000000000e+00  -3.7074705883202719e-03 -6.8614207882827838e-01 0.0000000000000000e+00  -4.1786771414965701e-03 -2.6626928773221836e-01 0.0000000000000000e+00  -3.9289663719768234e-03 -2.7868750521118868e-01 0.0000000000000000e+00  3.0742041493237449e-03 -4.9221618819448637e-01 0.0000000000000000e+00  7.8065979938773955e-04 -9.9223814888498307e-01 0.0000000000000000e+00  4.4690005151570844e-04 -9.7970062066909891e-01 0.0000000000000000e+00  2.5072267741246476e-04 -9.9646902461811560e-01 0.0000000000000000e+00  -2.5551999025427569e-03 -6.0085801553851936e-01 0.0000000000000000e+00  4.3133267716067014e-03 -1.7458465194787270e-01 0.0000000000000000e+00  -8.6254147764441846e-04 -6.1469611812915137e-01 0.0000000000000000e+00  5.8124025717828931e-04 -9.6016653169524357e-01 0.0000000000000000e+00  -2.5819523221521090e-03 -8.4766060889927564e-01 0.0000000000000000e+00  -2.3378085322983966e-03 -8.1494228650599276e-01 0.0000000000000000e+00  7.6015421770496416e-04 -7.7982116599565288e-01 0.0000000000000000e+00  -1.2569358008523990e-03 -8.3673070645795544e-01 0.0000000000000000e+00  1.4062959198919145e-03 -9.0336352687155852e-01 0.0000000000000000e+00  -2.4255326648048026e-03 -8.4181909881196981e-01 0.0000000000000000e+00  3.7795587626356930e-03 -7.7531301958395393e-01 0.0000000000000000e+00  -1.8088127192939195e-03 -8.5147473905279936e-01 0.0000000000000000e+00  -1.2308248366391661e-03 -9.2668129750467298e-01 0.0000000000000000e+00  2.0403631322540861e-04 -9.9913802425144693e-01 0.0000000000000000e+00  6.0936054924048966e-04 -9.8209151757458646e-01 0.0000000000000000e+00  3.6066382780730599e-04 -9.8183742949731700e-01 0.0000000000000000e+00  -2.3697657709426112e-03 -8.5728204610171688e-01 0.0000000000000000e+00  -2.5801376609413743e-03 -5.8104405702649653e-01 0.0000000000000000e+00  1.7614560016387948e-04 -9.9808161725725997e-01 0.0000000000000000e+00  1.5729601320835229e-04 -9.5806873343280186e-01 0.0000000000000000e+00  -1.9461523739437991e-03 -8.9849496872226098e-01 0.0000000000000000e+00  -1.5013606748670583e-03 -9.6430786610750974e-01 0.0000000000000000e+00  -5.0337103778030912e-04 -9.8493057114256133e-01 0.0000000000000000e+00  2.0554725239788352e-03 -9.0310687349861563e-01 0.0000000000000000e+00  7.4512017234956707e-04 -8.9359764311851153e-01 0.0000000000000000e+00  -3.5860623354924126e-03 -7.6816766922577395e-01 0.0000000000000000e+00  3.6380512215068439e-03 -3.9050573822154322e-01 0.0000000000000000e+00  5.7391797910536779e-03 -3.1353518122715940e-01 0.0000000000000000e+00  4.2637056015097929e-03 -5.7462426722219684e-01 0.0000000000000000e+00  -1.6127143211780437e-04 -9.9251327671148015e-01 0.0000000000000000e+00  6.2438557556188101e-04 -9.9339068678933085e-01 0.0000000000000000e+00  7.2760409771860379e-05 -7.5526145989756566e-01 0.0000000000000000e+00  -2.6258221086617119e-03 -4.2693319244787409e-01 0.0000000000000000e+00  -4.1062693626836566e-04 -4.7295277206521935e-01 0.0000000000000000e+00  -1.5353944636927186e-03 -7.3132291608656796e-01 0.0000000000000000e+00  2.6710488623793438e-03 -6.4176566363764875e-01 0.0000000000000000e+00  1.9198399895186680e-03 -6.7935738930529399e-01 0.0000000000000000e+00  1.0143700172037251e-03 -7.8498225913720587e-01 0.0000000000000000e+00  -5.0384960127300427e-04 -9.5105922048482960e-01 0.0000000000000000e+00  1.2606064169196074e-06 -9.9999425241909723e-01 0.0000000000000000e+00  1.2611629581392725e-03 -9.4266177071659518e-01 0.0000000000000000e+00  3.6934680599493008e-03 -6.6270796948553778e-01 0.0000000000000000e+00  -2.0404458692901972e-03 -9.5004227023887255e-01 0.0000000000000000e+00  9.4930008766233587e-04 -9.7107303909195808e-01 0.0000000000000000e+00  2.3933789139831962e-03 -8.0415177775554303e-01 0.0000000000000000e+00  -2.6657154510917325e-03 -7.0047426291833492e-01 0.0000000000000000e+00  2.2449877078243308e-03 -9.3674382259743794e-01 0.0000000000000000e+00  3.4787071977773198e-03 -4.8830810578344175e-01 0.0000000000000000e+00  -8.0874511261069760e-05 -9.9984773893173751e-01 0.0000000000000000e+00  2.4361775119517703e-05 -9.9867229996002926e-01 0.0000000000000000e+00  1.2762801067892071e-03 -6.6393217870804977e-01 0.0000000000000000e+00  -3.6997719795804906e-03 -4.8698928779010786e-01 0.0000000000000000e+00  -1.0665123073025917e-03 -9.6460001815059937e-01 0.0000000000000000e+00  -1.5029886609802534e-03 -7.9825225660952626e-01 0.0000000000000000e+00  4.2032561129873303e-03 -7.3093187082586697e-01 0.0000000000000000e+00  2.3234434937614568e-03 -7.0115302344495134e-01 0.0000000000000000e+00  1.1827707741995375e-03 -9.4309952827746990e-01 0.0000000000000000e+00  1.9243525613241164e-03 -9.3066167758724183e-01 0.0000000000000000e+00  3.2632399481085372e-03 -3.7877935929695450e-01 0.0000000000000000e+00  8.9920036755188060e-04 -8.8975446638511702e-01 0.0000000000000000e+00  2.6862634791703921e-03 -6.5819151335793957e-01 0.0000000000000000e+00  -4.3699558289822804e-03 -4.2084031533759736e-01 0.0000000000000000e+00  2.6942687689917519e-03 -5.9451591423498129e-01 0.0000000000000000e+00  4.3959895491254564e-03 -4.2763460711497436e-01 0.0000000000000000e+00  -4.1306175867323880e-03 -5.0126551390255447e-01 0.0000000000000000e+00  2.0219909761201582e-04 -9.9718589362130516e-01 0.0000000000000000e+00  -8.2817714261412823e-05 -1.0000063163548758e+00 0.0000000000000000e+00  -3.1300786481747167e-04 -9.2918318912152986e-01 0.0000000000000000e+00  -2.1204978652900053e-04 -9.9912262121823137e-01 0.0000000000000000e+00  -3.5213712607611303e-03 -7.4934992822886981e-01 0.0000000000000000e+00  -1.5472716662681130e-03 -8.8311047346063232e-01 0.0000000000000000e+00  8.8909876890608253e-04 -8.0865544835867331e-01 0.0000000000000000e+00  2.7241886344275823e-04 -2.8258944146091591e-01 0.0000000000000000e+00  3.0688732752319065e-03 -3.1383348566344338e-01 0.0000000000000000e+00  -1.0370471034936712e-03 -9.8511795066609331e-01 0.0000000000000000e+00  2.1919175100895139e-03 -7.1905383970600556e-01 0.0000000000000000e+00  3.1107803982226567e-03 -8.5287025334901201e-01 0.0000000000000000e+00  7.5438836787501684e-04 -9.1683252584783337e-01 0.0000000000000000e+00  2.9593744493382479e-03 -7.9103683281578485e-01 0.0000000000000000e+00  2.4429674045322869e-03 -6.4072827238357644e-01 0.0000000000000000e+00  -7.2008751591617209e-04 -9.2854712093003355e-01 0.0000000000000000e+00  -7.5595449426657524e-04 -9.7567474432569434e-01 0.0000000000000000e+00  -1.1903336879111603e-03 -9.8086147591644024e-01 0.0000000000000000e+00  -1.5370619870845315e-03 -9.5672797410167021e-01 0.0000000000000000e+00  3.2608131874940494e-03 -8.0896345683780713e-01 0.0000000000000000e+00  -2.1179575512716431e-03 -8.6954554228683145e-01 0.0000000000000000e+00  -2.7294188161371968e-03 -8.7227207645457927e-01 0.0000000000000000e+00  3.5607219677805894e-04 -8.0978264162171265e-01 0.0000000000000000e+00  -2.1540720511485922e-03 -5.2625429712335858e-01 0.0000000000000000e+00  -6.7148673332984021e-04 -5.2044050690019605e-01 0.0000000000000000e+00  -2.3506547050366478e-03 -6.1147013554571505e-01 0.0000000000000000e+00  2.5027166377242505e-03 -3.3150185617107270e-01 0.0000000000000000e+00  3.8787167588913429e-03 -4.1962688901722556e-01 0.0000000000000000e+00  1.3637658646203921e-04 -9.9135882402290876e-01 0.0000000000000000e+00  4.8970428617359368e-03 -6.6760904495391196e-02 0.0000000000000000e+00  -3.1280741794022167e-04 -6.7579454507697104e-02 0.0000000000000000e+00  1.2951461050025870e-04 -9.9976098709403494e-01 0.0000000000000000e+00  -5.2766289843123870e-03 -5.5658471516153285e-01 0.0000000000000000e+00  1.1742659887900020e-03 -5.5908471677590788e-01 0.0000000000000000e+00  -4.6996180777332947e-03 -5.9824707184120030e-01 0.0000000000000000e+00  -3.0978058102151262e-03 -7.1913719884418326e-01 0.0000000000000000e+00  -1.6089262208038579e-03 -9.3053875294133537e-01 0.0000000000000000e+00  2.7774738042934954e-04 -8.8743237486289606e-01 0.0000000000000000e+00  -6.0803291804090165e-04 -9.9002284026780063e-01 0.0000000000000000e+00  5.3634106786558389e-04 -9.9222758817280987e-01 0.0000000000000000e+00  -5.9706173853393829e-04 -9.6487896098992088e-01 0.0000000000000000e+00  -2.0792003980554252e-03 -9.2516750795992275e-01 0.0000000000000000e+00  -1.8862135394183193e-04 -9.9995938272521168e-01 0.0000000000000000e+00  1.7234178061484307e-04 -9.9265343533745809e-01 0.0000000000000000e+00  -1.4787146754240421e-03 -9.6489183646510546e-01 0.0000000000000000e+00  -5.6378544081547854e-04 -9.8975505437959166e-01 0.0000000000000000e+00  2.2779914948767854e-03 -7.3103338279975250e-01 0.0000000000000000e+00  -1.8857977477660937e-03 -9.2421511263508871e-01 0.0000000000000000e+00  5.1943040986164868e-03 -5.3676591286516784e-01 0.0000000000000000e+00  2.9349521748171375e-03 -1.9441603437926727e-01 0.0000000000000000e+00  2.4421322995937418e-03 -1.9345178482574796e-01 0.0000000000000000e+00  -2.3104143635645268e-04 -5.4273220100534414e-01 0.0000000000000000e+00  -1.6563345466259058e-03 -6.3518230261457831e-01 0.0000000000000000e+00  2.5276427543808877e-03 -7.3350291777131160e-01 0.0000000000000000e+00  6.4791753763404625e-04 -9.9375983735582185e-01 0.0000000000000000e+00  -4.9292311838437547e-04 -9.7279170021442618e-01 0.0000000000000000e+00  4.2109909085086272e-04 -9.9531272853590358e-01 0.0000000000000000e+00  -3.0907445565259151e-04 -6.2332281722834360e-01 0.0000000000000000e+00  -8.8940746705357121e-04 -9.5196710472486268e-01 0.0000000000000000e+00  1.0756037135616348e-03 -9.4786044766518640e-01 0.0000000000000000e+00  3.6474682820144544e-03 -8.1000984726799019e-01 0.0000000000000000e+00  -3.0230413289903391e-03 -7.2432434714994565e-01 0.0000000000000000e+00  -5.2701430378765401e-04 -8.0325899994883676e-01 0.0000000000000000e+00  1.9067791682234325e-03 -9.2096455633029906e-01 0.0000000000000000e+00  4.4589569080137892e-03 -2.1162883796863183e-01 0.0000000000000000e+00  -5.2647644363399901e-03 -2.9741461217212406e-01 0.0000000000000000e+00  5.0524082156205852e-04 -9.8006469722089440e-01 0.0000000000000000e+00  1.2207065298153186e-03 -9.7731064162951764e-01 0.0000000000000000e+00  -9.7527543996667188e-04 -8.9334550700407522e-01 0.0000000000000000e+00  5.7431942117103230e-04 -9.7716035627707931e-01 0.0000000000000000e+00  -3.2893185133819891e-04 -9.9499919742616882e-01 0.0000000000000000e+00  2.9813212832608960e-03 -4.5051216321556442e-01 0.0000000000000000e+00  2.5990407663289000e-03 -8.5707908517774534e-01 0.0000000000000000e+00  3.8591816994887340e-03 -8.9203120340865816e-01 0.0000000000000000e+00  -4.4229362850994880e-04 -7.3778128153508327e-01 0.0000000000000000e+00  -4.9745232182329957e-04 -9.9360090153188074e-01 0.0000000000000000e+00  1.1216202003939135e-03 -8.7194772458581660e-01 0.0000000000000000e+00  1.4238047828024902e-03 -9.2706335809449336e-01 0.0000000000000000e+00  1.2653484284952943e-03 -8.8840676264106466e-01 0.0000000000000000e+00  1.0840608442671540e-03 -9.2990793622864998e-01 0.0000000000000000e+00  -2.6410271820158093e-03 -8.5174168609728396e-01 0.0000000000000000e+00  2.5618961969781084e-04 -9.9921412151845213e-01 0.0000000000000000e+00  -3.2160595874852760e-04 -9.9324152610581107e-01 0.0000000000000000e+00  1.4201322067450284e-03 -6.9615886392693205e-01 0.0000000000000000e+00  3.6783543888086467e-03 -4.7291155932773349e-01 0.0000000000000000e+00  2.4303446440543386e-04 -8.7639660539486797e-01 0.0000000000000000e+00  2.2501248183818268e-03 -8.0172194867865110e-01 0.0000000000000000e+00  -6.4994890750845469e-04 -9.9009887467202862e-01 0.0000000000000000e+00  1.0123282214462570e-03 -9.7017967199487531e-01 0.0000000000000000e+00  -2.4488844746162197e-03 -9.2159125768405092e-01 0.0000000000000000e+00  -7.6163830582814951e-04 -9.8268786715918377e-01 0.0000000000000000e+00  8.4144987281198347e-04 -9.7265338042408389e-01 0.0000000000000000e+00  1.7411084631610008e-03 -4.5891477913889417e-01 0.0000000000000000e+00  1.6621778112771157e-03 -7.6304048658593815e-01 0.0000000000000000e+00  4.4742673201064731e-03 -8.0094866926789421e-01 0.0000000000000000e+00  3.3788799495548805e-04 -9.9687184164865483e-01 0.0000000000000000e+00  6.4834225024412717e-04 -9.6604162964168694e-01 0.0000000000000000e+00  -9.3193807383373795e-04 -9.6454891412436650e-01 0.0000000000000000e+00  2.2811613598356512e-03 -7.1266027918022257e-01 0.0000000000000000e+00  1.0887533738915128e-03 -8.8548404411504000e-01 0.0000000000000000e+00  -3.4988677555239933e-03 -7.9177289095547410e-01 0.0000000000000000e+00  -2.0817887539785751e-03 -8.1984656464062877e-01 0.0000000000000000e+00  -6.4928968144712827e-04 -9.8138744622818674e-01 0.0000000000000000e+00  1.4186004041798761e-03 -7.6334283433589789e-01 0.0000000000000000e+00  1.2768415470175154e-03 -9.6682613967503950e-01 0.0000000000000000e+00  2.1472825779922378e-04 -9.8745841728676709e-01 0.0000000000000000e+00  8.1604221236708518e-05 -9.9398633456301200e-01 0.0000000000000000e+00  2.2745305343784272e-03 -8.6462760645022108e-01 0.0000000000000000e+00  -1.2820005156162217e-03 -5.1499743532170783e-01 0.0000000000000000e+00  -5.6353766338546746e-05 -7.6641745626842817e-01 0.0000000000000000e+00  2.2921315781594398e-03 -8.6523774594171576e-01 0.0000000000000000e+00  2.0363578171903041e-04 -3.1430941581569471e-01 0.0000000000000000e+00  -5.6653065570170524e-03 -1.8807032589856235e-01 0.0000000000000000e+00  -2.1411047664853800e-03 -8.5141848002722886e-01 0.0000000000000000e+00  1.0681160551066493e-03 -9.3644050944433799e-01 0.0000000000000000e+00  -1.4134399304198408e-04 -8.8755655083627438e-01 0.0000000000000000e+00  -6.9095635605893879e-04 -9.0876518348309421e-01 0.0000000000000000e+00  3.5242335531646130e-03 -4.0361316932711894e-01 0.0000000000000000e+00  9.3333912924986606e-05 -9.9987354773471793e-01 0.0000000000000000e+00  7.7377391947663909e-04 -6.4152501176557231e-01 0.0000000000000000e+00  -3.1954645341376597e-03 -5.3213011628637452e-01 0.0000000000000000e+00  -3.3516998699690825e-03 -5.9437028211017717e-01 0.0000000000000000e+00  -2.3050199820420780e-03 -6.1326773725711703e-01 0.0000000000000000e+00  -4.8511147163433632e-03 -6.6233047751550989e-01 0.0000000000000000e+00  1.4587674755397323e-03 -8.6796747044641742e-01 0.0000000000000000e+00  -2.3371204705930904e-03 -8.7806382708492514e-01 0.0000000000000000e+00  -5.4630961941259937e-04 -9.3289329118656494e-01 0.0000000000000000e+00  -7.1521435184229709e-04 -9.7054350950286750e-01 0.0000000000000000e+00  1.0299782634409782e-03 -2.6325755113321692e-01 0.0000000000000000e+00  1.7135138368113700e-03 -3.6001453049558096e-01 0.0000000000000000e+00  -2.2287188172138983e-03 -3.2087702451111116e-01 0.0000000000000000e+00  7.1910796113643094e-04 -9.5175633468380416e-01 0.0000000000000000e+00  -1.7776014798360010e-04 -9.6329153887943908e-01 0.0000000000000000e+00  -2.8575904808756381e-03 -7.9499391783902729e-01 0.0000000000000000e+00  3.8809318366561651e-