<?xml version="1.0"?>
<VTKFile type="UnstructuredGrid"  version="0.1"  >
<UnstructuredGrid>
<Piece  NumberOfPoints="1385" NumberOfCells="2640">
<Points>
<DataArray  type="Float64"  NumberOfComponents="3"  format="ascii">0 0 0  1 0 0  1 1 0  0 1 0  0.5 0 0  1 0.5 0  0.5 1 0  0 0.5 0  0.5 0.5 0  0 0.25 0  0.25 0 0  0.25 1 0  0 0.75 0  1 0.25 0  0.75 0 0  1 0.75 0  0.75 1 0  0.7083333333333333 0.2916666666666667 0  0.2916666666666666 0.7083333333333334 0  0.375 0.25 0  0.75 0.625 0  0.2569444444444444 0.4652777777777778 0  0.5366379310344828 0.7535919540229885 0  0.1875 0.1875 0  0.8125 0.8125 0  0.869047619047619 0.375 0  0.1450441919191919 0.6052714646464646 0  0.375 0.8690476190476191 0  0.5526960784313725 0.1825980392156862 0  0.8385416666666666 0.1614583333333334 0  0.1614583333333333 0.8385416666666667 0  0.6736111111111112 0.4652777777777778 0  0.1367521367521368 0.3477564102564102 0  0.6570970491253563 0.8648656830417855 0  0.5102479397556124 0.3386260301221938 0  0.3654513888888889 0.5737847222222222 0  0.6929750044954185 0.1362784921584263 0  0.388576102743835 0.411911725237599 0  0.6091269841269842 0.5942460317460317 0  0.875 0.6875 0  0.427278890279516 0.119889445139758 0  0.8544456845238095 0.5213913690476191 0  0.125 0 0  0 0.125 0  1 0.875 0  0.875 1 0  0.1280008648150532 0.4769292340226777 0  0.2695382451711197 0.3321750950221553 0  0.7031567235715964 0.7447810921428012 0  0.625 0 0  0.375 0 0  0.125 1 0  0.875 0 0  0 0.375 0  0 0.625 0  1 0.375 0  0.375 1 0  1 0.125 0  0 0.875 0  0.625 1 0  1 0.625 0  0.2979288363930608 0.1201429454643536 0  0.410919540229885 0.7484605911330049 0  0.5325041980395562 0.878905151526474 0  0.4831670727569156 0.6331060043826487 0  0.1735997378973042 0.7204747378973043 0  0.2534919507575758 0.5772372159090909 0  0.2633928571428572 0.8876488095238095 0  0.8199404761904761 0.2730654761904762 0  0.75830270586982 0.3919383189517417 0  0.5750282248382511 0.4237522353023667 0  0.6008360210023379 0.2794828358598495 0  0.08163442644334186 0.6821295860397322 0  0.08333333333333333 0.1875 0  0.2028380815996574 0.08844602719988583 0  0.2766521142611967 0.2325436572164097 0  0.90625 0.78125 0  0.890625 0.890625 0  0.7545696325008384 0.8973565441669461 0  0.5625 0.08086590340834317 0  0.09077380952380953 0.09077380952380952 0  0.4610923478694773 0.209034015149656 0  0.7542527598351648 0.5248380520595106 0  0.6459235536037465 0.3619913988405765 0  0.7560381768882634 0.20506142233852 0  0.07073252688172042 0.8125 0  0.0924753097241701 0.9078102849914793 0  0.9292674731182795 0.1875 0  0.9075246902758297 0.09218971500852073 0  0.8125 0.07073252688172045 0  0.2400955776842301 0.7869705776842302 0  0.9121050213379069 0.2781978201831695 0  0.7916878157143976 0.7239689078571988 0  0.9345238095238094 0.4375 0  0.4375 0.9345238095238095 0  0.3725616989755203 0.6651895248862173 0  0.06536271996350887 0.5625 0  0.9348362560379583 0.5625 0  0.456646798987055 0.8277247094351965 0  0.1875 0.9355758238725954 0  0.6169761231634859 0.6939779188977889 0  0.6226854751147515 0.7827911461419014 0  0.3305695598137626 0.7901697871282585 0  0.5865305325818898 0.5101085479043448 0  0.6622701297028378 0.2177663989757395 0  0.1354166666666667 0.2591702279202279 0  0 0.3125 0  0.2094429575680048 0.3936361846162499 0  0.836666296419157 0.607917407161686 0  0.6875 1 0  0.214261555450504 0.6492551722020035 0  0 0.4375 0  0.07731537126068377 0.40625 0  0.3427725432967068 0.4879566233699599 0  0.3550792513951871 0.3331953632609953 0  0.4462473953896857 0.2887834789342508 0  0.4747801464819794 0.417386052030127 0  0.8229836475148948 0.4443292349237342 0  0.7322605135514757 0.8199240278289671 0  0.6756431877205955 0.5468989748126787 0  0.1968419507215863 0.5194573482612496 0  0.3285590277777778 0.9345238095238095 0  0.8125 1 0  0.4198917601920009 0.5134893045331258 0  0.5232405503206691 0.2595791787880157 0  1 0.9375 0  0.1987510870015086 0.3025185951894431 0  0.5625 1 0  0.6005390654136388 0.9228110509230952 0  0.6411254848194414 0.07704872765442942 0  0.3357233162523242 0.1855113224530532 0  0.6730653396610877 0.6393887462324165 0  0.310966987234063 0.6240019765311626 0  0.7368737836204349 0.07457755202327881 0  0.6192316414418171 0.1485238406378594 0  0.5432429670607106 0.678552703844006 0  0.4754371679695679 0.7103946803120881 0  0.07501324890749672 0.3043839897335739 0  0.5358146975860403 0.5688321463205916 0  0.3115271739500156 0.3982137365971444 0  0.3625191397122174 0.0767854603650549 0  0.5024029442563831 0.1264128223758444 0  0.4375 0 0  0.4699946908887376 0.06379961173775725 0  0.9375 0.71875 0  0.9272105898044465 0.635671179608893 0  0.9375 1 0  0.6690971819568612 0.9331530898202766 0  0.1073454944778885 0.7499206387638554 0  0.8699082999280406 0.2232403652524313 0  0.5773118091863964 0.3548027349159383 0  0.1354166666666667 0.1428571428571428 0  0.3125 0 0  0.8241684193077341 0.9257452995055244 0  0.4352314948354036 0.3586940847489378 0  0.4351301473778832 0.5819726043539077 0  0.8073232928518163 0.3419398170341962 0  0.7775949246947366 0.1298519409204575 0  0.6875 0 0  0.7413513991851041 0.457933324954483 0  0.939453125 0.841796875 0  0.5630355154606987 0.8171875156478349 0  0.9345238095238095 0.3461466592368577 0  0.9375 0 0  1 0.0625 0  0.0625 1 0  0 0.9375 0  0.06552178593177167 0.4969053669623468 0  0.1424866619031703 0.4130277709291224 0  0.1275287182444726 0.5422946908002588 0  0.2637686595586339 0.06413888464529549 0  0.2524263535491086 0.1697437503243817 0  0.7367218397988525 0.6888573970660841 0  0.0625 0 0  0 0.0625 0  0.8463594539285995 0.7578283617857982 0  0.3128751192101563 0.2851997374369947 0  0.4015281788351144 0.1806421385113692 0  0.1910251795116588 0.4553332197174453 0  0.287797471442006 0.5222621440543902 0  0.3962628745986055 0.8097380085535307 0  0.3505895299554843 0.7304878890838692 0  0.5019151500495276 0.9356042615328103 0  0.9374389419410134 0.4999931039076005 0  0.3125 1 0  0.1875 1 0  1 0.5625 0  0.4375 1 0  1 0.3125 0  1 0.4375 0  0.8125 0 0  1 0.1875 0  0.5625 0 0  0.1875 0 0  0 0.1875 0  0 0.5625 0  0 0.6875 0  0 0.8125 0  1 0.6875 0  1 0.8125 0  0.8021696218581627 0.6612893947866073 0  0.06154922295426143 0.6239401126946708 0  0.9359375 0.9359375 0  0.4666158024849896 0.7691515918155014 0  0.2318201265217025 0.7064974250277525 0  0.1565954253579966 0.6635489312486841 0  0.1598132503680848 0.7787147500325552 0  0.3146529991605639 0.8510876378205265 0  0.1461873209418733 0.05982804528877814 0  0.06109554988524315 0.2446551776247686 0  0.8054950308560754 0.5564226538848541 0  0.470541749491976 0.8853316336952531 0  0.6948472567465137 0.4042308563372457 0  0.8802828472348889 0.4658893256343853 0  0.6788075634946739 0.7974194205806069 0  0.2155048659603867 0.2428201584940968 0  0.8131223143423806 0.2132171049028394 0  0.4330798005432235 0.6671274900735726 0  0.6015279126162613 0.2187368078743274 0  0.8061636571464289 0.8703766630361714 0  0.7008230445061776 0.3478568388444072 0  0.8638466246958771 0.3147095987735538 0  0.204801534004265 0.8789209409594009 0  0.2449006736431132 0.9424182882803838 0  0.7611268409371427 0.2643056884799992 0  0.7552800864046191 0.7678006649959446 0  0.5983639638906616 0.864113435029236 0  0.1956559506814437 0.577281203577426 0  0.3527670268164207 0.1320469097565204 0  0.7530364577483248 0.3262386077083089 0  0.4535919187979363 0.4690107087451527 0  0.8824869791666666 0.8336588541666666 0  0.8814453125 0.9451171875 0  0.5582987942628019 0.622421666543858 0  0.6817532446064828 0.6939001801354731 0  0.3830295138888889 0.9450968952922078 0  0.4140603937012541 0.05211333372716105 0  0.5535864501303013 0.3060591985391672 0  0.6560130086346878 0.2729726562211558 0  0.890203140221684 0.5948314305427268 0  0.7043857725999024 0.593980890020804 0  0.5105843922695152 0.8016828014338627 0  0.05365910753708378 0.7315110031682004 0  0.616904573672261 0.4621186633436136 0  0.5338511646455415 0.387875898899613 0  0.5231769258947843 0.4477682463140762 0  0.650302973237622 0.7370722302085519 0  0.3927483139621257 0.4662414504529014 0  0.8034595960585199 0.4972538342758211 0  0.7738337841682438 0.9496376207663251 0  0.7193737507158268 0.954685447650112 0  0.482525916480686 0.5528257169991676 0  0.2533501157346781 0.2809495420003238 0  0.3118487924482243 0.5702930126570319 0  0.6257598847669529 0.4104163315430518 0  0.1354166666666667 0.1955605158730158 0  0.04166666666666666 0.15625 0  0.3956448985530264 0.6174149462065157 0  0.8102897701818546 0.3938784238208349 0  0.2641154190013625 0.8344469561943118 0  0.642852220770013 0.5068794586563659 0  0.05271458179508221 0.355846947336007 0  0.7021551360070266 0.8921457280225779 0  0.5692125776683765 0.1328512638850284 0  0.5206162811937602 0.04865158770992991 0  0.6001838442201555 0.04540556991297563 0  0.2597716608242787 0.4118346398477178 0  0.4040584599473195 0.3179589136784675 0  0.1480337679295207 0.8941560631483065 0  0.1344356707112281 0.9466251177415842 0  0.7114696411829317 0.4983917389078826 0  0.7585704698442475 0.5751926345944629 0  0.2189131956390871 0.04022068508159698 0  0.2476935455192043 0.1123642267635843 0  0.185995005654517 0.1365524537205238 0  0.6223414373308711 0.643380839165121 0  0.5732602596637543 0.7190051747306219 0  0.268358222364537 0.6586246524467934 0  0.3265879848129173 0.2369791782191225 0  0.1267095595787346 0.7034787238999181 0  0.1115202922226038 0.6421997933884982 0  0.3128688392940203 0.07260997451790079 0  0.550724900485678 0.9253360991633187 0  0.7142608810459105 0.2384904702214873 0  0.7045869185243887 0.1871826897887429 0  0.890625 0.734375 0  0.953125 0.765625 0  0.2111812642821677 0.8286209446459138 0  0.9590293078204457 0.09375 0  0.953431269039847 0.1435719386408004 0  0.04097069217955424 0.90625 0  0.04656873096015299 0.8564280613591996 0  0.1078743037981226 0.8541621766048062 0  0.8921256962018773 0.1458378233951939 0  0.8521576979194619 0.1084496634207678 0  0.8655663982740958 0.05464346096571447 0  0.04005659640905543 0.09375 0  0.1001448316533417 0.04246776244228261 
[...]
<PointData  Vectors="f_8394-0-1"> 
<DataArray  type="Float64"  Name="f_8394-0-1"  NumberOfComponents="3" format="ascii">4.2164852811701937e-03 -1.7420813368350201e-02 0.0000000000000000e+00  1.4860001006406745e-03 -8.4283273940256853e-01 0.0000000000000000e+00  2.4103955466607324e-03 -9.1274421749078405e-01 0.0000000000000000e+00  9.0346267236115878e-06 -8.4523906492153034e-01 0.0000000000000000e+00  3.0523965767885047e-03 -4.8615350426152421e-01 0.0000000000000000e+00  -1.3568783885908875e-04 -9.9713051642866057e-01 0.0000000000000000e+00  1.0235064207553268e-04 -9.9759159145292986e-01 0.0000000000000000e+00  5.2843936978500539e-03 -4.8435096620444335e-01 0.0000000000000000e+00  -2.1278407634424401e-03 -8.3694145604797698e-01 0.0000000000000000e+00  1.6641055191330689e-03 -2.5576490793975459e-01 0.0000000000000000e+00  4.0883280530819022e-03 -2.5523542966334828e-01 0.0000000000000000e+00  -9.8175297933034145e-04 -9.4591503132274812e-01 0.0000000000000000e+00  1.0331865136958629e-03 -6.8633753525994057e-01 0.0000000000000000e+00  -1.7676130382547894e-03 -9.4671965518491152e-01 0.0000000000000000e+00  -1.6289854532641201e-03 -6.7518725231267851e-01 0.0000000000000000e+00  1.0564981061383927e-03 -9.8538600247849495e-01 0.0000000000000000e+00  6.3873938034486599e-04 -9.8346512606514702e-01 0.0000000000000000e+00  1.2914450146057632e-03 -8.4681511153439470e-01 0.0000000000000000e+00  3.3787279528288972e-03 -8.4577515734751585e-01 0.0000000000000000e+00  -2.2261827441642790e-03 -5.8049758986444788e-01 0.0000000000000000e+00  -7.7246440974060304e-04 -9.7996041332572170e-01 0.0000000000000000e+00  1.4725510916191453e-06 -6.5535068973784960e-01 0.0000000000000000e+00  1.0081954478587396e-03 -9.6379888829239924e-01 0.0000000000000000e+00  -4.1103647411391275e-03 -3.5822541449442163e-01 0.0000000000000000e+00  3.2065974970407751e-04 -9.9857634508260196e-01 0.0000000000000000e+00  8.5531831571850070e-04 -9.5118875109076373e-01 0.0000000000000000e+00  -1.5195417967935054e-03 -6.7515351239895627e-01 0.0000000000000000e+00  8.2685109539093471e-04 -9.5000992767987258e-01 0.0000000000000000e+00  3.0578755341524599e-03 -6.6934297316881974e-01 0.0000000000000000e+00  -1.7588520708184431e-03 -8.4728777294143576e-01 0.0000000000000000e+00  -2.2851533568059579e-03 -8.3779909883914505e-01 0.0000000000000000e+00  4.1198850655868591e-04 -9.1278493452725573e-01 0.0000000000000000e+00  -1.3635935569089319e-03 -4.7057367667384181e-01 0.0000000000000000e+00  1.9765523972703480e-04 -9.9896485373738109e-01 0.0000000000000000e+00  -4.3645328706167774e-03 -7.4633814773630158e-01 0.0000000000000000e+00  1.3189516591941564e-03 -8.1285503548560800e-01 0.0000000000000000e+00  -2.2462063138278809e-03 -7.3257629572597782e-01 0.0000000000000000e+00  -1.8169742702603964e-03 -7.1423767485463718e-01 0.0000000000000000e+00  -8.2457174539993239e-04 -9.3317562665405884e-01 0.0000000000000000e+00  -6.6888016695632047e-05 -9.9995738586646987e-01 0.0000000000000000e+00  4.4819951908881411e-03 -5.2908214200885806e-01 0.0000000000000000e+00  3.4755634781924449e-04 -9.8291701770525841e-01 0.0000000000000000e+00  4.5833632433069232e-03 -1.2724272372551138e-01 0.0000000000000000e+00  -1.3500000822905082e-04 -1.3071350835600246e-01 0.0000000000000000e+00  1.9164897410860471e-03 -9.5636267929901764e-01 0.0000000000000000e+00  1.1043371794472456e-03 -9.5510709992893905e-01 0.0000000000000000e+00  3.1423200320774280e-03 -5.7442396759486192e-01 0.0000000000000000e+00  -4.2383260942427947e-03 -5.5906580142472884e-01 0.0000000000000000e+00  -3.8993704307258015e-04 -9.9120596956090401e-01 0.0000000000000000e+00  1.8478197305163979e-03 -5.9143600426992193e-01 0.0000000000000000e+00  5.9423841675857736e-03 -3.6902793387178823e-01 0.0000000000000000e+00  -2.2960645938011615e-03 -9.0028079162035524e-01 0.0000000000000000e+00  3.4083020409975129e-03 -7.7084049112227693e-01 0.0000000000000000e+00  5.7693149144912859e-03 -3.7647338852541268e-01 0.0000000000000000e+00  1.6582040940604740e-03 -5.9041485019835205e-01 0.0000000000000000e+00  -1.2623592487610580e-03 -9.7937821136559089e-01 0.0000000000000000e+00  1.5619184507614792e-04 -9.8279709258296299e-01 0.0000000000000000e+00  -2.5567653314776395e-03 -9.0000334930970172e-01 0.0000000000000000e+00  2.8852530287029055e-03 -7.7207670083635316e-01 0.0000000000000000e+00  1.0335765748326065e-04 -9.9843105450549163e-01 0.0000000000000000e+00  2.6639331923927756e-04 -9.9877668104657680e-01 0.0000000000000000e+00  4.3121593199666741e-03 -4.1657771635261220e-01 0.0000000000000000e+00  -1.0094993171702038e-03 -9.1471035647180343e-01 0.0000000000000000e+00  -1.0159259330965176e-03 -9.8666489735121221e-01 0.0000000000000000e+00  -2.1122153282063377e-03 -8.9572620560297500e-01 0.0000000000000000e+00  2.2093109507591163e-03 -7.8428384130528728e-01 0.0000000000000000e+00  5.1514339411461996e-03 -7.4103635499537501e-01 0.0000000000000000e+00  -2.0457762443559790e-03 -9.0837754915923541e-01 0.0000000000000000e+00  -8.0283867736390124e-04 -8.8345037629394718e-01 0.0000000000000000e+00  1.1661082100317133e-03 -9.1654098788909966e-01 0.0000000000000000e+00  2.5851729313722815e-03 -8.4576513293687905e-01 0.0000000000000000e+00  7.2235238076168162e-04 -7.7738166951792853e-01 0.0000000000000000e+00  -3.7123423621801543e-03 -6.8600972960035833e-01 0.0000000000000000e+00  -4.1864190769833054e-03 -2.6628685701055632e-01 0.0000000000000000e+00  -3.9342999285152808e-03 -2.7882415820883616e-01 0.0000000000000000e+00  3.0786984519132338e-03 -4.9239091055852380e-01 0.0000000000000000e+00  7.8381888208128858e-04 -9.9206645108361036e-01 0.0000000000000000e+00  4.4685313719572406e-04 -9.7937514436982054e-01 0.0000000000000000e+00  2.5064983622457779e-04 -9.9620685221325234e-01 0.0000000000000000e+00  -2.5570951914838588e-03 -6.0127085923494838e-01 0.0000000000000000e+00  4.3208995062210334e-03 -1.7460960069860043e-01 0.0000000000000000e+00  -8.6422443734465726e-04 -6.1498926556102884e-01 0.0000000000000000e+00  5.8122978677577208e-04 -9.6035712719073474e-01 0.0000000000000000e+00  -2.5847419685219863e-03 -8.4796789756042867e-01 0.0000000000000000e+00  -2.3411170130531456e-03 -8.1538451248573773e-01 0.0000000000000000e+00  7.6452985563640885e-04 -7.7963364273093649e-01 0.0000000000000000e+00  -1.2540943253839254e-03 -8.3647419287049318e-01 0.0000000000000000e+00  1.4096954688991442e-03 -9.0386465102776214e-01 0.0000000000000000e+00  -2.4220132033095643e-03 -8.4238270250490488e-01 0.0000000000000000e+00  3.7809584291228493e-03 -7.7586948308338255e-01 0.0000000000000000e+00  -1.8116656297603867e-03 -8.5135751107185820e-01 0.0000000000000000e+00  -1.2291246719803306e-03 -9.2710746955629686e-01 0.0000000000000000e+00  2.0710223101158554e-04 -9.9909669127838985e-01 0.0000000000000000e+00  6.1049911215987906e-04 -9.8234895676818357e-01 0.0000000000000000e+00  3.5708316253968420e-04 -9.8161336859120496e-01 0.0000000000000000e+00  -2.3733024103710365e-03 -8.5728710744042314e-01 0.0000000000000000e+00  -2.5880477113793057e-03 -5.8094010687441755e-01 0.0000000000000000e+00  1.7585217499505035e-04 -9.9818955873999293e-01 0.0000000000000000e+00  1.5783895389193114e-04 -9.5795342641463355e-01 0.0000000000000000e+00  -1.9430217266596106e-03 -8.9825169836394803e-01 0.0000000000000000e+00  -1.5020442345501650e-03 -9.6432419960299354e-01 0.0000000000000000e+00  -5.0385422071697050e-04 -9.8485073153132963e-01 0.0000000000000000e+00  2.0585993639936351e-03 -9.0301498246498513e-01 0.0000000000000000e+00  7.4543380908015378e-04 -8.9378553700712915e-01 0.0000000000000000e+00  -3.5926591660989660e-03 -7.6856912008288847e-01 0.0000000000000000e+00  3.6424540099890823e-03 -3.9056995907674186e-01 0.0000000000000000e+00  5.7444562371410657e-03 -3.1348044576849771e-01 0.0000000000000000e+00  4.2679468744289406e-03 -5.7470705625482266e-01 0.0000000000000000e+00  -1.6157260778049132e-04 -9.9260480792459949e-01 0.0000000000000000e+00  6.2325525551498728e-04 -9.9300464509120590e-01 0.0000000000000000e+00  7.2227218299497631e-05 -7.5521808482100328e-01 0.0000000000000000e+00  -2.6314994230536809e-03 -4.2685191990329963e-01 0.0000000000000000e+00  -4.1016773411142737e-04 -4.7294451367618806e-01 0.0000000000000000e+00  -1.5372475265397201e-03 -7.3142372045113524e-01 0.0000000000000000e+00  2.6743448088348831e-03 -6.4196640382454084e-01 0.0000000000000000e+00  1.9245655144285445e-03 -6.7962656348260475e-01 0.0000000000000000e+00  1.0160374507362513e-03 -7.8519890706261108e-01 0.0000000000000000e+00  -5.0606903762642069e-04 -9.5132397091758469e-01 0.0000000000000000e+00  1.9159346305586133e-06 -9.9984576257394697e-01 0.0000000000000000e+00  1.2638396925401807e-03 -9.4282708338004451e-01 0.0000000000000000e+00  3.6984908061373223e-03 -6.6273315360203855e-01 0.0000000000000000e+00  -2.0357947053506464e-03 -9.4981464062084398e-01 0.0000000000000000e+00  9.4372277218988943e-04 -9.7060796110860692e-01 0.0000000000000000e+00  2.3962128371226681e-03 -8.0428342864426061e-01 0.0000000000000000e+00  -2.6700130144430290e-03 -7.0078477741633161e-01 0.0000000000000000e+00  2.2350940802329244e-03 -9.3624786098049817e-01 0.0000000000000000e+00  3.4832880611243983e-03 -4.8840897611405476e-01 0.0000000000000000e+00  -8.2682319457279252e-05 -9.9951014136117744e-01 0.0000000000000000e+00  2.3876223913782413e-05 -9.9843043688424293e-01 0.0000000000000000e+00  1.2786640476739608e-03 -6.6440264028786966e-01 0.0000000000000000e+00  -3.7040057158944650e-03 -4.8720237307565623e-01 0.0000000000000000e+00  -1.0666386551386742e-03 -9.6467165867700511e-01 0.0000000000000000e+00  -1.5014148419897344e-03 -7.9826408283898487e-01 0.0000000000000000e+00  4.2117089892051984e-03 -7.3145260459565720e-01 0.0000000000000000e+00  2.3264121889594591e-03 -7.0157726935858700e-01 0.0000000000000000e+00  1.1834836348915689e-03 -9.4313603794820167e-01 0.0000000000000000e+00  1.9284138546185325e-03 -9.3066071369064052e-01 0.0000000000000000e+00  3.2627252459851985e-03 -3.7878578976510863e-01 0.0000000000000000e+00  9.0142408808676668e-04 -8.8987277980915025e-01 0.0000000000000000e+00  2.6914704796989208e-03 -6.5833342229271574e-01 0.0000000000000000e+00  -4.3783055875922239e-03 -4.2110785282552199e-01 0.0000000000000000e+00  2.7004028335169752e-03 -5.9488007643760410e-01 0.0000000000000000e+00  4.4001828519211056e-03 -4.2797865031060978e-01 0.0000000000000000e+00  -4.1390194839605599e-03 -5.0160897290106654e-01 0.0000000000000000e+00  2.0310890235250567e-04 -9.9709193076916103e-01 0.0000000000000000e+00  -8.4091907613007000e-05 -1.0000287820417166e+00 0.0000000000000000e+00  -3.1758292214313644e-04 -9.2861895317883369e-01 0.0000000000000000e+00  -2.1650392972250021e-04 -9.9884329731640864e-01 0.0000000000000000e+00  -3.5250829389112948e-03 -7.4919920676452112e-01 0.0000000000000000e+00  -1.5481025166093065e-03 -8.8356960888285985e-01 0.0000000000000000e+00  8.9010569142033980e-04 -8.0894962724207287e-01 0.0000000000000000e+00  2.7570991435252323e-04 -2.8267518856424650e-01 0.0000000000000000e+00  3.0636935193467524e-03 -3.1409964349954383e-01 0.0000000000000000e+00  -1.0416704173580316e-03 -9.8477744036470183e-01 0.0000000000000000e+00  2.1948038386735425e-03 -7.1928164120723581e-01 0.0000000000000000e+00  3.1140895283766623e-03 -8.5296419148684177e-01 0.0000000000000000e+00  7.5670950628566047e-04 -9.1719560973332115e-01 0.0000000000000000e+00  2.9647368988156841e-03 -7.9154168301299466e-01 0.0000000000000000e+00  2.4433532790518186e-03 -6.4125815732811298e-01 0.0000000000000000e+00  -7.1907018368809472e-04 -9.2879292942807612e-01 0.0000000000000000e+00  -7.6125243821523192e-04 -9.7536611784687910e-01 0.0000000000000000e+00  -1.1898628623775442e-03 -9.8075134521940510e-01 0.0000000000000000e+00  -1.5354684744526281e-03 -9.5707961530396668e-01 0.0000000000000000e+00  3.2636880391495593e-03 -8.0959366730710824e-01 0.0000000000000000e+00  -2.1180203978842238e-03 -8.7015716840591506e-01 0.0000000000000000e+00  -2.7277369108621996e-03 -8.7193783238763911e-01 0.0000000000000000e+00  3.5809382044946301e-04 -8.0948274056955183e-01 0.0000000000000000e+00  -2.1630543663861967e-03 -5.2617445262247164e-01 0.0000000000000000e+00  -6.7097507513225185e-04 -5.2045415957638819e-01 0.0000000000000000e+00  -2.3547501198543097e-03 -6.1142963528426797e-01 0.0000000000000000e+00  2.5026686993514236e-03 -3.3171294943499607e-01 0.0000000000000000e+00  3.8834583825909930e-03 -4.1980896341276541e-01 0.0000000000000000e+00  1.3802881817703838e-04 -9.9137073006903798e-01 0.0000000000000000e+00  4.8777893145421566e-03 -6.6743233893037074e-02 0.0000000000000000e+00  -3.2675842968985376e-04 -6.7529861840008851e-02 0.0000000000000000e+00  1.3293866678043553e-04 -9.9965246421983711e-01 0.0000000000000000e+00  -5.2826918335880935e-03 -5.5675501533507576e-01 0.0000000000000000e+00  1.1773712474097142e-03 -5.5936962473887686e-01 0.0000000000000000e+00  -4.7043394609545680e-03 -5.9828125357866002e-01 0.0000000000000000e+00  -3.1017520434160062e-03 -7.1919952313960578e-01 0.0000000000000000e+00  -1.6108604692080947e-03 -9.3043236542293417e-01 0.0000000000000000e+00  2.7855279933625132e-04 -8.8739401518361460e-01 0.0000000000000000e+00  -6.0652859104459722e-04 -9.8978643650958020e-01 0.0000000000000000e+00  5.3539590560234412e-04 -9.9241304771616967e-01 0.0000000000000000e+00  -5.9473398577117309e-04 -9.6457868134677749e-01 0.0000000000000000e+00  -2.0790874043065399e-03 -9.2486201801805423e-01 0.0000000000000000e+00  -1.9378848452132467e-04 -1.0000657159289135e+00 0.0000000000000000e+00  1.7800461478942320e-04 -9.9235906569978816e-01 0.0000000000000000e+00  -1.4786780401119248e-03 -9.6528096259444762e-01 0.0000000000000000e+00  -5.6448578899415125e-04 -9.9000829432240955e-01 0.0000000000000000e+00  2.2868642843806401e-03 -7.3162918148416756e-01 0.0000000000000000e+00  -1.8838728334670263e-03 -9.2472247767485649e-01 0.0000000000000000e+00  5.2010318763926200e-03 -5.3720334590657859e-01 0.0000000000000000e+00  2.9209612060990958e-03 -1.9457714921322042e-01 0.0000000000000000e+00  2.4302053767737775e-03 -1.9341596311719156e-01 0.0000000000000000e+00  -2.2640074992211429e-04 -5.4259628362911649e-01 0.0000000000000000e+00  -1.6508643789407825e-03 -6.3502065971221955e-01 0.0000000000000000e+00  2.5338625478752430e-03 -7.3327451555585910e-01 0.0000000000000000e+00  6.4409856485891925e-04 -9.9368840101435885e-01 0.0000000000000000e+00  -4.9743226646005705e-04 -9.7251540672751779e-01 0.0000000000000000e+00  4.2204320846295218e-04 -9.9534787986615991e-01 0.0000000000000000e+00  -3.0162706076984624e-04 -6.2318404586411180e-01 0.0000000000000000e+00  -8.9784700882113155e-04 -9.5149328277417644e-01 0.0000000000000000e+00  1.0753328826524911e-03 -9.4780651551036943e-01 0.0000000000000000e+00  3.6532109387626965e-03 -8.0995311618629695e-01 0.0000000000000000e+00  -3.0259235096601333e-03 -7.2424840964395332e-01 0.0000000000000000e+00  -5.2579611729913767e-04 -8.0312190049841858e-01 0.0000000000000000e+00  1.9079212615923657e-03 -9.2082098166525927e-01 0.0000000000000000e+00  4.4611705752679379e-03 -2.1174102422190025e-01 0.0000000000000000e+00  -5.2758933307125860e-03 -2.9739608323890926e-01 0.0000000000000000e+00  5.0677636034046625e-04 -9.8021826310031634e-01 0.0000000000000000e+00  1.2226489551200870e-03 -9.7713401173734937e-01 0.0000000000000000e+00  -9.7558809751566167e-04 -8.9363643362764011e-01 0.0000000000000000e+00  5.7698303132225348e-04 -9.7740929823205736e-01 0.0000000000000000e+00  -3.2855898450567800e-04 -9.9489491604466052e-01 0.0000000000000000e+00  2.9857022209884287e-03 -4.5064636375655082e-01 0.0000000000000000e+00  2.6031924053999261e-03 -8.5754163569321185e-01 0.0000000000000000e+00  3.8665601320087561e-03 -8.9205805840089003e-01 0.0000000000000000e+00  -4.4085713520127662e-04 -7.3816259456089595e-01 0.0000000000000000e+00  -5.0077254403591009e-04 -9.9335209254244794e-01 0.0000000000000000e+00  1.1228078194063795e-03 -8.7228595353233329e-01 0.0000000000000000e+00  1.4281097460433038e-03 -9.2746044536758254e-01 0.0000000000000000e+00  1.2694255320962466e-03 -8.8822098199965382e-01 0.0000000000000000e+00  1.0858718412875001e-03 -9.2967538471152944e-01 0.0000000000000000e+00  -2.6429457421816294e-03 -8.5214731262471322e-01 0.0000000000000000e+00  2.5808202774169064e-04 -9.9912738183530581e-01 0.0000000000000000e+00  -3.2047533285206597e-04 -9.9307231935389551e-01 0.0000000000000000e+00  1.4233825278062162e-03 -6.9615120805351816e-01 0.0000000000000000e+00  3.6808634212044389e-03 -4.7317560903794237e-01 0.0000000000000000e+00  2.4358749624386888e-04 -8.7675161873636709e-01 0.0000000000000000e+00  2.2522233252108004e-03 -8.0189814046015329e-01 0.0000000000000000e+00  -6.5025444787784881e-04 -9.8986709045387855e-01 0.0000000000000000e+00  1.0126632658470358e-03 -9.6977964993974108e-01 0.0000000000000000e+00  -2.4497679720607568e-03 -9.2167049681207325e-01 0.0000000000000000e+00  -7.6059797958111242e-04 -9.8270327770342392e-01 0.0000000000000000e+00  8.3913832885018635e-04 -9.7242173208718707e-01 0.0000000000000000e+00  1.7415705067622689e-03 -4.5924857897592580e-01 0.0000000000000000e+00  1.6640062103845110e-03 -7.6335333842048392e-01 0.0000000000000000e+00  4.4820297275653398e-03 -8.0131400337587055e-01 0.0000000000000000e+00  3.3698636328016729e-04 -9.9696671326429132e-01 0.0000000000000000e+00  6.4964941706724399e-04 -9.6616196849511171e-01 0.0000000000000000e+00  -9.3390873207321867e-04 -9.6445761074102443e-01 0.0000000000000000e+00  2.2882574749263362e-03 -7.1249929343482088e-01 0.0000000000000000e+00  1.0909355957016836e-03 -8.8571336797422417e-01 0.0000000000000000e+00  -3.5021969590910973e-03 -7.9201796412817183e-01 0.0000000000000000e+00  -2.0837116120469013e-03 -8.2004822313467773e-01 0.0000000000000000e+00  -6.5126385317766200e-04 -9.8135621184448862e-01 0.0000000000000000e+00  1.4217434164081055e-03 -7.6349479574978774e-01 0.0000000000000000e+00  1.2781912132338591e-03 -9.6704475889161068e-01 0.0000000000000000e+00  2.1194307179728256e-04 -9.8710797018439722e-01 0.0000000000000000e+00  7.8930329239418340e-05 -9.9365761903922489e-01 0.0000000000000000e+00  2.2785202996532528e-03 -8.6475516816187559e-01 0.0000000000000000e+00  -1.2827465342183653e-03 -5.1514559514464198e-01 0.0000000000000000e+00  -5.7007348714968771e-05 -7.6646082064062515e-01 0.0000000000000000e+00  2.2954829016339495e-03 -8.6550814763151696e-01 0.0000000000000000e+00  2.0714079985725484e-04 -3.1436299427787079e-01 0.0000000000000000e+00  -5.6806613704046272e-03 -1.8801917683283356e-01 0.0000000000000000e+00  -2.1438093500539407e-03 -8.5147539100071901e-01 0.0000000000000000e+00  1.0705592781813933e-03 -9.3675738991604141e-01 0.0000000000000000e+00  -1.4071801189574629e-04 -8.8741032726766356e-01 0.0000000000000000e+00  -6.9130889889736091e-04 -9.0895396220190794e-01 0.0000000000000000e+00  3.5222562278072189e-03 -4.0358206718803319e-01 0.0000000000000000e+00  9.4506259311066820e-05 -9.9963875248512191e-01 0.0000000000000000e+00  7.7634853477184795e-04 -6.4191945451708943e-01 0.0000000000000000e+00  -3.2014243831017808e-03 -5.3252003203032217e-01 0.0000000000000000e+00  -3.3574547094035179e-03 -5.9480711449079804e-01 0.0000000000000000e+00  -2.3092846741387535e-03 -6.1335022980299969e-01 0.0000000000000000e+00  -4.8560831460442155e-03 -6.6255549583112749e-01 0.0000000000000000e+00  1.4632472126528684e-03 -8.6775850835867130e-01 0.0000000000000000e+00  -2.3329397937933427e-03 -8.7780030180912105e-01 0.0000000000000000e+00  -5.4660866218192439e-04 -9.3310077941959346e-01 0.0000000000000000e+00  -7.1723755898012165e-04 -9.7067868812556057e-01 0.0000000000000000e+00  1.0217498428787830e-03 -2.6344053650239335e-01 0.0000000000000000e+00  1.7140083644749116e-03 -3.6020641082999816e-01 0.0000000000000000e+00  -2.2307174696914733e-03 -3.2100398121587881e-01 0.0000000000000000e+00  7.2129137667838183e-04 -9.5182227602249980e-01 0.0000000000000000e+00  -1.7757584688682729e-04 -9.6328877263723400e-01 0.0000000000000000e+00  -2.8595207573561821e-03 -7.9497225640290226e-01 0.0000000000000000e+00  3.8913542298774084e-