<?xml version="1.0"?>
<VTKFile type="UnstructuredGrid"  version="0.1"  >
<UnstructuredGrid>
<Piece  NumberOfPoints="1385" NumberOfCells="2640">
<Points>
<DataArray  type="Float64"  NumberOfComponents="3"  format="ascii">0 0 0  1 0 0  1 1 0  0 1 0  0.5 0 0  1 0.5 0  0.5 1 0  0 0.5 0  0.5 0.5 0  0 0.25 0  0.25 0 0  0.25 1 0  0 0.75 0  1 0.25 0  0.75 0 0  1 0.75 0  0.75 1 0  0.7083333333333333 0.2916666666666667 0  0.2916666666666666 0.7083333333333334 0  0.375 0.25 0  0.75 0.625 0  0.2569444444444444 0.4652777777777778 0  0.5366379310344828 0.7535919540229885 0  0.1875 0.1875 0  0.8125 0.8125 0  0.869047619047619 0.375 0  0.1450441919191919 0.6052714646464646 0  0.375 0.8690476190476191 0  0.5526960784313725 0.1825980392156862 0  0.8385416666666666 0.1614583333333334 0  0.1614583333333333 0.8385416666666667 0  0.6736111111111112 0.4652777777777778 0  0.1367521367521368 0.3477564102564102 0  0.6570970491253563 0.8648656830417855 0  0.5102479397556124 0.3386260301221938 0  0.3654513888888889 0.5737847222222222 0  0.6929750044954185 0.1362784921584263 0  0.388576102743835 0.411911725237599 0  0.6091269841269842 0.5942460317460317 0  0.875 0.6875 0  0.427278890279516 0.119889445139758 0  0.8544456845238095 0.5213913690476191 0  0.125 0 0  0 0.125 0  1 0.875 0  0.875 1 0  0.1280008648150532 0.4769292340226777 0  0.2695382451711197 0.3321750950221553 0  0.7031567235715964 0.7447810921428012 0  0.625 0 0  0.375 0 0  0.125 1 0  0.875 0 0  0 0.375 0  0 0.625 0  1 0.375 0  0.375 1 0  1 0.125 0  0 0.875 0  0.625 1 0  1 0.625 0  0.2979288363930608 0.1201429454643536 0  0.410919540229885 0.7484605911330049 0  0.5325041980395562 0.878905151526474 0  0.4831670727569156 0.6331060043826487 0  0.1735997378973042 0.7204747378973043 0  0.2534919507575758 0.5772372159090909 0  0.2633928571428572 0.8876488095238095 0  0.8199404761904761 0.2730654761904762 0  0.75830270586982 0.3919383189517417 0  0.5750282248382511 0.4237522353023667 0  0.6008360210023379 0.2794828358598495 0  0.08163442644334186 0.6821295860397322 0  0.08333333333333333 0.1875 0  0.2028380815996574 0.08844602719988583 0  0.2766521142611967 0.2325436572164097 0  0.90625 0.78125 0  0.890625 0.890625 0  0.7545696325008384 0.8973565441669461 0  0.5625 0.08086590340834317 0  0.09077380952380953 0.09077380952380952 0  0.4610923478694773 0.209034015149656 0  0.7542527598351648 0.5248380520595106 0  0.6459235536037465 0.3619913988405765 0  0.7560381768882634 0.20506142233852 0  0.07073252688172042 0.8125 0  0.0924753097241701 0.9078102849914793 0  0.9292674731182795 0.1875 0  0.9075246902758297 0.09218971500852073 0  0.8125 0.07073252688172045 0  0.2400955776842301 0.7869705776842302 0  0.9121050213379069 0.2781978201831695 0  0.7916878157143976 0.7239689078571988 0  0.9345238095238094 0.4375 0  0.4375 0.9345238095238095 0  0.3725616989755203 0.6651895248862173 0  0.06536271996350887 0.5625 0  0.9348362560379583 0.5625 0  0.456646798987055 0.8277247094351965 0  0.1875 0.9355758238725954 0  0.6169761231634859 0.6939779188977889 0  0.6226854751147515 0.7827911461419014 0  0.3305695598137626 0.7901697871282585 0  0.5865305325818898 0.5101085479043448 0  0.6622701297028378 0.2177663989757395 0  0.1354166666666667 0.2591702279202279 0  0 0.3125 0  0.2094429575680048 0.3936361846162499 0  0.836666296419157 0.607917407161686 0  0.6875 1 0  0.214261555450504 0.6492551722020035 0  0 0.4375 0  0.07731537126068377 0.40625 0  0.3427725432967068 0.4879566233699599 0  0.3550792513951871 0.3331953632609953 0  0.4462473953896857 0.2887834789342508 0  0.4747801464819794 0.417386052030127 0  0.8229836475148948 0.4443292349237342 0  0.7322605135514757 0.8199240278289671 0  0.6756431877205955 0.5468989748126787 0  0.1968419507215863 0.5194573482612496 0  0.3285590277777778 0.9345238095238095 0  0.8125 1 0  0.4198917601920009 0.5134893045331258 0  0.5232405503206691 0.2595791787880157 0  1 0.9375 0  0.1987510870015086 0.3025185951894431 0  0.5625 1 0  0.6005390654136388 0.9228110509230952 0  0.6411254848194414 0.07704872765442942 0  0.3357233162523242 0.1855113224530532 0  0.6730653396610877 0.6393887462324165 0  0.310966987234063 0.6240019765311626 0  0.7368737836204349 0.07457755202327881 0  0.6192316414418171 0.1485238406378594 0  0.5432429670607106 0.678552703844006 0  0.4754371679695679 0.7103946803120881 0  0.07501324890749672 0.3043839897335739 0  0.5358146975860403 0.5688321463205916 0  0.3115271739500156 0.3982137365971444 0  0.3625191397122174 0.0767854603650549 0  0.5024029442563831 0.1264128223758444 0  0.4375 0 0  0.4699946908887376 0.06379961173775725 0  0.9375 0.71875 0  0.9272105898044465 0.635671179608893 0  0.9375 1 0  0.6690971819568612 0.9331530898202766 0  0.1073454944778885 0.7499206387638554 0  0.8699082999280406 0.2232403652524313 0  0.5773118091863964 0.3548027349159383 0  0.1354166666666667 0.1428571428571428 0  0.3125 0 0  0.8241684193077341 0.9257452995055244 0  0.4352314948354036 0.3586940847489378 0  0.4351301473778832 0.5819726043539077 0  0.8073232928518163 0.3419398170341962 0  0.7775949246947366 0.1298519409204575 0  0.6875 0 0  0.7413513991851041 0.457933324954483 0  0.939453125 0.841796875 0  0.5630355154606987 0.8171875156478349 0  0.9345238095238095 0.3461466592368577 0  0.9375 0 0  1 0.0625 0  0.0625 1 0  0 0.9375 0  0.06552178593177167 0.4969053669623468 0  0.1424866619031703 0.4130277709291224 0  0.1275287182444726 0.5422946908002588 0  0.2637686595586339 0.06413888464529549 0  0.2524263535491086 0.1697437503243817 0  0.7367218397988525 0.6888573970660841 0  0.0625 0 0  0 0.0625 0  0.8463594539285995 0.7578283617857982 0  0.3128751192101563 0.2851997374369947 0  0.4015281788351144 0.1806421385113692 0  0.1910251795116588 0.4553332197174453 0  0.287797471442006 0.5222621440543902 0  0.3962628745986055 0.8097380085535307 0  0.3505895299554843 0.7304878890838692 0  0.5019151500495276 0.9356042615328103 0  0.9374389419410134 0.4999931039076005 0  0.3125 1 0  0.1875 1 0  1 0.5625 0  0.4375 1 0  1 0.3125 0  1 0.4375 0  0.8125 0 0  1 0.1875 0  0.5625 0 0  0.1875 0 0  0 0.1875 0  0 0.5625 0  0 0.6875 0  0 0.8125 0  1 0.6875 0  1 0.8125 0  0.8021696218581627 0.6612893947866073 0  0.06154922295426143 0.6239401126946708 0  0.9359375 0.9359375 0  0.4666158024849896 0.7691515918155014 0  0.2318201265217025 0.7064974250277525 0  0.1565954253579966 0.6635489312486841 0  0.1598132503680848 0.7787147500325552 0  0.3146529991605639 0.8510876378205265 0  0.1461873209418733 0.05982804528877814 0  0.06109554988524315 0.2446551776247686 0  0.8054950308560754 0.5564226538848541 0  0.470541749491976 0.8853316336952531 0  0.6948472567465137 0.4042308563372457 0  0.8802828472348889 0.4658893256343853 0  0.6788075634946739 0.7974194205806069 0  0.2155048659603867 0.2428201584940968 0  0.8131223143423806 0.2132171049028394 0  0.4330798005432235 0.6671274900735726 0  0.6015279126162613 0.2187368078743274 0  0.8061636571464289 0.8703766630361714 0  0.7008230445061776 0.3478568388444072 0  0.8638466246958771 0.3147095987735538 0  0.204801534004265 0.8789209409594009 0  0.2449006736431132 0.9424182882803838 0  0.7611268409371427 0.2643056884799992 0  0.7552800864046191 0.7678006649959446 0  0.5983639638906616 0.864113435029236 0  0.1956559506814437 0.577281203577426 0  0.3527670268164207 0.1320469097565204 0  0.7530364577483248 0.3262386077083089 0  0.4535919187979363 0.4690107087451527 0  0.8824869791666666 0.8336588541666666 0  0.8814453125 0.9451171875 0  0.5582987942628019 0.622421666543858 0  0.6817532446064828 0.6939001801354731 0  0.3830295138888889 0.9450968952922078 0  0.4140603937012541 0.05211333372716105 0  0.5535864501303013 0.3060591985391672 0  0.6560130086346878 0.2729726562211558 0  0.890203140221684 0.5948314305427268 0  0.7043857725999024 0.593980890020804 0  0.5105843922695152 0.8016828014338627 0  0.05365910753708378 0.7315110031682004 0  0.616904573672261 0.4621186633436136 0  0.5338511646455415 0.387875898899613 0  0.5231769258947843 0.4477682463140762 0  0.650302973237622 0.7370722302085519 0  0.3927483139621257 0.4662414504529014 0  0.8034595960585199 0.4972538342758211 0  0.7738337841682438 0.9496376207663251 0  0.7193737507158268 0.954685447650112 0  0.482525916480686 0.5528257169991676 0  0.2533501157346781 0.2809495420003238 0  0.3118487924482243 0.5702930126570319 0  0.6257598847669529 0.4104163315430518 0  0.1354166666666667 0.1955605158730158 0  0.04166666666666666 0.15625 0  0.3956448985530264 0.6174149462065157 0  0.8102897701818546 0.3938784238208349 0  0.2641154190013625 0.8344469561943118 0  0.642852220770013 0.5068794586563659 0  0.05271458179508221 0.355846947336007 0  0.7021551360070266 0.8921457280225779 0  0.5692125776683765 0.1328512638850284 0  0.5206162811937602 0.04865158770992991 0  0.6001838442201555 0.04540556991297563 0  0.2597716608242787 0.4118346398477178 0  0.4040584599473195 0.3179589136784675 0  0.1480337679295207 0.8941560631483065 0  0.1344356707112281 0.9466251177415842 0  0.7114696411829317 0.4983917389078826 0  0.7585704698442475 0.5751926345944629 0  0.2189131956390871 0.04022068508159698 0  0.2476935455192043 0.1123642267635843 0  0.185995005654517 0.1365524537205238 0  0.6223414373308711 0.643380839165121 0  0.5732602596637543 0.7190051747306219 0  0.268358222364537 0.6586246524467934 0  0.3265879848129173 0.2369791782191225 0  0.1267095595787346 0.7034787238999181 0  0.1115202922226038 0.6421997933884982 0  0.3128688392940203 0.07260997451790079 0  0.550724900485678 0.9253360991633187 0  0.7142608810459105 0.2384904702214873 0  0.7045869185243887 0.1871826897887429 0  0.890625 0.734375 0  0.953125 0.765625 0  0.2111812642821677 0.8286209446459138 0  0.9590293078204457 0.09375 0  0.953431269039847 0.1435719386408004 0  0.04097069217955424 0.90625 0  0.04656873096015299 0.8564280613591996 0  0.1078743037981226 0.8541621766048062 0  0.8921256962018773 0.1458378233951939 0  0.8521576979194619 0.1084496634207678 0  0.8655663982740958 0.05464346096571447 0  0.04005659640905543 0.09375 0  0.1001448316533417 0.04246776244228261 
[...]
<PointData  Vectors="f_8394-0-1"> 
<DataArray  type="Float64"  Name="f_8394-0-1"  NumberOfComponents="3" format="ascii">4.2357730472214888e-03 -1.7586727430089766e-02 0.0000000000000000e+00  1.4791065776679981e-03 -8.4200848649690463e-01 0.0000000000000000e+00  2.3935989896984441e-03 -9.1349578337750592e-01 0.0000000000000000e+00  1.1173141639192301e-05 -8.4564696936784745e-01 0.0000000000000000e+00  3.0552649346981264e-03 -4.8565615183826383e-01 0.0000000000000000e+00  -1.3895125969154432e-04 -9.9692370772403605e-01 0.0000000000000000e+00  9.5256027708767732e-05 -9.9798268257022094e-01 0.0000000000000000e+00  5.2660105671261670e-03 -4.8446945931384572e-01 0.0000000000000000e+00  -2.1243447942697891e-03 -8.3674198230700614e-01 0.0000000000000000e+00  1.6790025593386364e-03 -2.5581568978026409e-01 0.0000000000000000e+00  4.0934862648546178e-03 -2.5497802798848623e-01 0.0000000000000000e+00  -9.8382166399796356e-04 -9.4630449822359375e-01 0.0000000000000000e+00  1.0370566143702638e-03 -6.8658719605410723e-01 0.0000000000000000e+00  -1.7682001911740741e-03 -9.4616822211209017e-01 0.0000000000000000e+00  -1.6294563639503434e-03 -6.7450143514944982e-01 0.0000000000000000e+00  1.0677203372300159e-03 -9.8561454609918697e-01 0.0000000000000000e+00  6.4483165712103663e-04 -9.8399645892675591e-01 0.0000000000000000e+00  1.2861020745561502e-03 -8.4633777180693237e-01 0.0000000000000000e+00  3.3733221626708332e-03 -8.4582420075622766e-01 0.0000000000000000e+00  -2.2246949964146723e-03 -5.8021391147423873e-01 0.0000000000000000e+00  -7.7470030642656784e-04 -9.7985882535902424e-01 0.0000000000000000e+00  -9.5816153122818548e-08 -6.5525587786106199e-01 0.0000000000000000e+00  1.0019816487168987e-03 -9.6384654080865240e-01 0.0000000000000000e+00  -4.1085817687724277e-03 -3.5810190085432642e-01 0.0000000000000000e+00  3.1606804878986372e-04 -9.9878760090821417e-01 0.0000000000000000e+00  8.5781333356745038e-04 -9.5076349898263124e-01 0.0000000000000000e+00  -1.5179525596707155e-03 -6.7522460023314057e-01 0.0000000000000000e+00  8.2566674416562069e-04 -9.5020749613722522e-01 0.0000000000000000e+00  3.0507724401689085e-03 -6.6888828704097092e-01 0.0000000000000000e+00  -1.7582153387415318e-03 -8.4665828214680738e-01 0.0000000000000000e+00  -2.2825374791134445e-03 -8.3801620895402340e-01 0.0000000000000000e+00  4.0887099265958515e-04 -9.1248758673322017e-01 0.0000000000000000e+00  -1.3565519545662708e-03 -4.7052214728004343e-01 0.0000000000000000e+00  2.0000054413615853e-04 -9.9919437107384557e-01 0.0000000000000000e+00  -4.3605179913060732e-03 -7.4601007909911532e-01 0.0000000000000000e+00  1.3187885339429606e-03 -8.1276043248002527e-01 0.0000000000000000e+00  -2.2465036899720348e-03 -7.3200555383790789e-01 0.0000000000000000e+00  -1.8142943003388590e-03 -7.1403019368078879e-01 0.0000000000000000e+00  -8.2399877861512316e-04 -9.3303599960282524e-01 0.0000000000000000e+00  -6.5917986444841148e-05 -9.9998265573317580e-01 0.0000000000000000e+00  4.4780150940890995e-03 -5.2867920802628343e-01 0.0000000000000000e+00  3.4739824374219186e-04 -9.8267827009406661e-01 0.0000000000000000e+00  4.6112967535705748e-03 -1.2716225135271550e-01 0.0000000000000000e+00  -9.6809534357757479e-05 -1.3079218720187308e-01 0.0000000000000000e+00  1.9340520193283917e-03 -9.5685561599319358e-01 0.0000000000000000e+00  1.1242996349873358e-03 -9.5573336380476093e-01 0.0000000000000000e+00  3.1431594505239857e-03 -5.7442561695016814e-01 0.0000000000000000e+00  -4.2331285777661432e-03 -5.5890733606169796e-01 0.0000000000000000e+00  -3.9043868608584775e-04 -9.9126709987158423e-01 0.0000000000000000e+00  1.8529247686294159e-03 -5.9082294359115572e-01 0.0000000000000000e+00  5.9389627063446693e-03 -3.6865859570657555e-01 0.0000000000000000e+00  -2.3004884466064079e-03 -9.0068012945679421e-01 0.0000000000000000e+00  3.4029279218359965e-03 -7.7010220523365169e-01 0.0000000000000000e+00  5.7701008857240499e-03 -3.7659166784202358e-01 0.0000000000000000e+00  1.6816431977139858e-03 -5.9058059129952978e-01 0.0000000000000000e+00  -1.2604810373429975e-03 -9.7898547096402966e-01 0.0000000000000000e+00  1.4774396917660582e-04 -9.8315936104693624e-01 0.0000000000000000e+00  -2.5591500764962083e-03 -8.9930575509702304e-01 0.0000000000000000e+00  2.8751556416208857e-03 -7.7240877963796351e-01 0.0000000000000000e+00  1.1898045110192434e-04 -9.9887623331310527e-01 0.0000000000000000e+00  2.6853794789127861e-04 -9.9876235298110161e-01 0.0000000000000000e+00  4.3096006364211903e-03 -4.1629811160549263e-01 0.0000000000000000e+00  -1.0050192020643611e-03 -9.1476748257909346e-01 0.0000000000000000e+00  -1.0097885933826323e-03 -9.8688253074726606e-01 0.0000000000000000e+00  -2.1111275570796229e-03 -8.9565689354270450e-01 0.0000000000000000e+00  2.2049343211538175e-03 -7.8439798694191842e-01 0.0000000000000000e+00  5.1434581493058351e-03 -7.4100900623103949e-01 0.0000000000000000e+00  -2.0482538109576343e-03 -9.0862005520071221e-01 0.0000000000000000e+00  -8.0435418784899348e-04 -8.8293732506484024e-01 0.0000000000000000e+00  1.1659462314792535e-03 -9.1614588394420493e-01 0.0000000000000000e+00  2.5795201880358665e-03 -8.4545609833934421e-01 0.0000000000000000e+00  7.2441614143764488e-04 -7.7694878332513573e-01 0.0000000000000000e+00  -3.7049519383092200e-03 -6.8617897053047439e-01 0.0000000000000000e+00  -4.1763323615054693e-03 -2.6626861443545419e-01 0.0000000000000000e+00  -3.9299013165282337e-03 -2.7865743428675582e-01 0.0000000000000000e+00  3.0741020444494255e-03 -4.9217389415240420e-01 0.0000000000000000e+00  7.7809231018885483e-04 -9.9228443682118017e-01 0.0000000000000000e+00  4.4753080205484075e-04 -9.7978616945040797e-01 0.0000000000000000e+00  2.5050919595987278e-04 -9.9653721108764182e-01 0.0000000000000000e+00  -2.5596904470726461e-03 -6.0075380103704046e-01 0.0000000000000000e+00  4.3117463338524960e-03 -1.7457912578678850e-01 0.0000000000000000e+00  -8.6274057751795086e-04 -6.1462519970418428e-01 0.0000000000000000e+00  5.8173270343969685e-04 -9.6012134467351740e-01 0.0000000000000000e+00  -2.5799071198096546e-03 -8.4758694183663663e-01 0.0000000000000000e+00  -2.3354750058422469e-03 -8.1483160562150081e-01 0.0000000000000000e+00  7.5938749280481110e-04 -7.7986584054151808e-01 0.0000000000000000e+00  -1.2568489997724641e-03 -8.3679690323507161e-01 0.0000000000000000e+00  1.4049543130395942e-03 -9.0323956377585635e-01 0.0000000000000000e+00  -2.4272280532139645e-03 -8.4168035727319590e-01 0.0000000000000000e+00  3.7806303096792893e-03 -7.7517480509080205e-01 0.0000000000000000e+00  -1.8076323224219606e-03 -8.5150922689355146e-01 0.0000000000000000e+00  -1.2329829514500235e-03 -9.2657761320735366e-01 0.0000000000000000e+00  2.0221738395573285e-04 -9.9915100991959638e-01 0.0000000000000000e+00  6.0958844037267701e-04 -9.8202834932715888e-01 0.0000000000000000e+00  3.6344022015744049e-04 -9.8189720212112763e-01 0.0000000000000000e+00  -2.3673874347760471e-03 -8.5728558511726516e-01 0.0000000000000000e+00  -2.5753099688550704e-03 -5.8106277898950198e-01 0.0000000000000000e+00  1.7649828227406239e-04 -9.9805645395132814e-01 0.0000000000000000e+00  1.5658311689420445e-04 -9.5809731042931667e-01 0.0000000000000000e+00  -1.9480479955023555e-03 -8.9855833974530985e-01 0.0000000000000000e+00  -1.5017638184136872e-03 -9.6430453860993470e-01 0.0000000000000000e+00  -5.0319335900106399e-04 -9.8495380689891709e-01 0.0000000000000000e+00  2.0540303416594907e-03 -9.0313483897683522e-01 0.0000000000000000e+00  7.4480605511395570e-04 -8.9355152897540935e-01 0.0000000000000000e+00  -3.5800138789656710e-03 -7.6806797376077229e-01 0.0000000000000000e+00  3.6370897163578442e-03 -3.9049363523604602e-01 0.0000000000000000e+00  5.7376868051019769e-03 -3.1356112575885448e-01 0.0000000000000000e+00  4.2621784808216101e-03 -5.7460507977334996e-01 0.0000000000000000e+00  -1.6187111821930333e-04 -9.9249329369691353e-01 0.0000000000000000e+00  6.2459311973517284e-04 -9.9349058875765328e-01 0.0000000000000000e+00  7.4315460400237177e-05 -7.5527502641979172e-01 0.0000000000000000e+00  -2.6214341753760776e-03 -4.2695430003983742e-01 0.0000000000000000e+00  -4.1094779752556820e-04 -4.7295217188349703e-01 0.0000000000000000e+00  -1.5356816538574791e-03 -7.3129997485749410e-01 0.0000000000000000e+00  2.6740030519705194e-03 -6.4171436391382175e-01 0.0000000000000000e+00  1.9131348633306677e-03 -6.7929050392587476e-01 0.0000000000000000e+00  1.0156893670683065e-03 -7.8493099720139248e-01 0.0000000000000000e+00  -5.0258026099662956e-04 -9.5099320595016601e-01 0.0000000000000000e+00  7.1825492553578840e-07 -1.0000345659324106e+00 0.0000000000000000e+00  1.2608470498534086e-03 -9.4262201901463727e-01 0.0000000000000000e+00  3.6936092992974068e-03 -6.6270659120405295e-01 0.0000000000000000e+00  -2.0441280340678381e-03 -9.5010209831202763e-01 0.0000000000000000e+00  9.5155605008288846e-04 -9.7120062303356036e-01 0.0000000000000000e+00  2.3948334437762543e-03 -8.0412072993008787e-01 0.0000000000000000e+00  -2.6635305630692274e-03 -7.0040176767830209e-01 0.0000000000000000e+00  2.2596977118943817e-03 -9.3689085068719924e-01 0.0000000000000000e+00  3.4755446753267846e-03 -4.8828914642166821e-01 0.0000000000000000e+00  -8.0448383926048721e-05 -9.9993684211503897e-01 0.0000000000000000e+00  2.4708836238618304e-05 -9.9873250721013873e-01 0.0000000000000000e+00  1.2756007717877604e-03 -6.6381456981157205e-01 0.0000000000000000e+00  -3.7002273044141054e-03 -4.8693779101403212e-01 0.0000000000000000e+00  -1.0656541366558248e-03 -9.6458243098937524e-01 0.0000000000000000e+00  -1.5076195505313028e-03 -7.9825403880709445e-01 0.0000000000000000e+00  4.2013229294951548e-03 -7.3080647873991778e-01 0.0000000000000000e+00  2.3247039351371734e-03 -7.0104480858769180e-01 0.0000000000000000e+00  1.1803618856033871e-03 -9.4309169817309968e-01 0.0000000000000000e+00  1.9218576820565075e-03 -9.3066462093340852e-01 0.0000000000000000e+00  3.2675164121649114e-03 -3.7877862407207519e-01 0.0000000000000000e+00  8.9874476578190657e-04 -8.8972803525343114e-01 0.0000000000000000e+00  2.6826670200396918e-03 -6.5816479654395732e-01 0.0000000000000000e+00  -4.3638947397289241e-03 -4.2077483433988694e-01 0.0000000000000000e+00  2.6867038672383561e-03 -5.9442642064071405e-01 0.0000000000000000e+00  4.3925507153226989e-03 -4.2754993801832664e-01 0.0000000000000000e+00  -4.1297345484112569e-03 -5.0118593295469172e-01 0.0000000000000000e+00  1.9979623387607337e-04 -9.9720953250845534e-01 0.0000000000000000e+00  -8.1829346272127568e-05 -1.0000009468975535e+00 0.0000000000000000e+00  -3.0322319715660184e-04 -9.2933512692571196e-01 0.0000000000000000e+00  -2.0878106143251696e-04 -9.9919474679203613e-01 0.0000000000000000e+00  -3.5208890274955884e-03 -7.4938938928216092e-01 0.0000000000000000e+00  -1.5480546488435554e-03 -8.8300004761807227e-01 0.0000000000000000e+00  8.9111647761375146e-04 -8.0858552984219290e-01 0.0000000000000000e+00  2.6882499197847243e-04 -2.8257443260092208e-01 0.0000000000000000e+00  3.0727008206861833e-03 -3.1375928788459695e-01 0.0000000000000000e+00  -1.0346011782021991e-03 -9.8520550238180771e-01 0.0000000000000000e+00  2.1918366253671495e-03 -7.1900020655293850e-01 0.0000000000000000e+00  3.1105591688942447e-03 -8.5284588061851729e-01 0.0000000000000000e+00  7.5305281923845890e-04 -9.1674697104110026e-01 0.0000000000000000e+00  2.9573052602195893e-03 -7.9091579434547543e-01 0.0000000000000000e+00  2.4439689092669581e-03 -6.4059778014266278e-01 0.0000000000000000e+00  -7.2083374355991214e-04 -9.2848924108008346e-01 0.0000000000000000e+00  -7.5373238884274274e-04 -9.7575491576535933e-01 0.0000000000000000e+00  -1.1923182390917164e-03 -9.8089217671746431e-01 0.0000000000000000e+00  -1.5374938812516281e-03 -9.5664246718710944e-01 0.0000000000000000e+00  3.2580966540479150e-03 -8.0881432218506499e-01 0.0000000000000000e+00  -2.1206072026421774e-03 -8.6940086354186075e-01 0.0000000000000000e+00  -2.7328752506493581e-03 -8.7236370881064840e-01 0.0000000000000000e+00  3.5997711047758892e-04 -8.0987003818971248e-01 0.0000000000000000e+00  -2.1453191858132881e-03 -5.2627622064425528e-01 0.0000000000000000e+00  -6.7434071216487812e-04 -5.2044028390587993e-01 0.0000000000000000e+00  -2.3506427379523243e-03 -6.1148117274787150e-01 0.0000000000000000e+00  2.5028831631332960e-03 -3.3145282149024424e-01 0.0000000000000000e+00  3.8798752848341889e-03 -4.1958186998655922e-01 0.0000000000000000e+00  1.3495591751228053e-04 -9.9135961713463039e-01 0.0000000000000000e+00  4.9239109087473934e-03 -6.6779767919301944e-02 0.0000000000000000e+00  -2.8658392693545578e-04 -6.7605714285481330e-02 0.0000000000000000e+00  1.2745079566656159e-04 -9.9979302236136680e-01 0.0000000000000000e+00  -5.2766436503896008e-03 -5.5654398462802968e-01 0.0000000000000000e+00  1.1722280727376189e-03 -5.5901844707738824e-01 0.0000000000000000e+00  -4.6997244853627523e-03 -5.9824637005921311e-01 0.0000000000000000e+00  -3.0959701924455629e-03 -7.1912086291625432e-01 0.0000000000000000e+00  -1.6061574451960020e-03 -9.3056760385290427e-01 0.0000000000000000e+00  2.7765670614848803e-04 -8.8744520754505385e-01 0.0000000000000000e+00  -6.0868868430574707e-04 -9.9008355682553773e-01 0.0000000000000000e+00  5.3637526103749583e-04 -9.9217984341227938e-01 0.0000000000000000e+00  -5.9811452029134848e-04 -9.6496106571590823e-01 0.0000000000000000e+00  -2.0799807412570370e-03 -9.2524546664275698e-01 0.0000000000000000e+00  -1.8453513828596723e-04 -9.9993988403177969e-01 0.0000000000000000e+00  1.6831419240334600e-04 -9.9272889515203888e-01 0.0000000000000000e+00  -1.4789526672581710e-03 -9.6480581524918774e-01 0.0000000000000000e+00  -5.6295472580114581e-04 -9.8970352191870292e-01 0.0000000000000000e+00  2.2727668999122739e-03 -7.3088504572342861e-01 0.0000000000000000e+00  -1.8870562818463776e-03 -9.2409775822404727e-01 0.0000000000000000e+00  5.1907452332668191e-03 -5.3666774714409393e-01 0.0000000000000000e+00  2.9450075370134471e-03 -1.9437451100590439e-01 0.0000000000000000e+00  2.4467196944733794e-03 -1.9347521723270417e-01 0.0000000000000000e+00  -2.2972002656053534e-04 -5.4279447499853306e-01 0.0000000000000000e+00  -1.6589631923665167e-03 -6.3522986785965252e-01 0.0000000000000000e+00  2.5246243265212298e-03 -7.3358010161725529e-01 0.0000000000000000e+00  6.5043532555686401e-04 -9.9378619082768327e-01 0.0000000000000000e+00  -4.8830800755157136e-04 -9.7287820841418093e-01 0.0000000000000000e+00  4.2052330532649229e-04 -9.9530567380555690e-01 0.0000000000000000e+00  -3.1692657012105663e-04 -6.2336229964666134e-01 0.0000000000000000e+00  -8.8541251336599069e-04 -9.5209159393012222e-01 0.0000000000000000e+00  1.0750278310454053e-03 -9.4787606028383720e-01 0.0000000000000000e+00  3.6451232260438227e-03 -8.1002699730772365e-01 0.0000000000000000e+00  -3.0233935807960632e-03 -7.2434365809290224e-01 0.0000000000000000e+00  -5.2762215582613514e-04 -8.0329366930420865e-01 0.0000000000000000e+00  1.9083476012054512e-03 -9.2100155996615973e-01 0.0000000000000000e+00  4.4597903606415634e-03 -2.1160469691668948e-01 0.0000000000000000e+00  -5.2606608802545571e-03 -2.9741894903147731e-01 0.0000000000000000e+00  5.0377793154837702e-04 -9.8002939472709372e-01 0.0000000000000000e+00  1.2195207113110396e-03 -9.7735764493452870e-01 0.0000000000000000e+00  -9.7658154849056267e-04 -8.9327279689025718e-01 0.0000000000000000e+00  5.7318303736209053e-04 -9.7710107788099321e-01 0.0000000000000000e+00  -3.3002369296752931e-04 -9.9502706939357488e-01 0.0000000000000000e+00  2.9806946652926603e-03 -4.5047904654284771e-01 0.0000000000000000e+00  2.5964044839904693e-03 -8.5696463436438708e-01 0.0000000000000000e+00  3.8553071210575829e-03 -8.9202922419039599e-01 0.0000000000000000e+00  -4.4629611586487899e-04 -7.3768606304012774e-01 0.0000000000000000e+00  -4.9558489470302725e-04 -9.9366600816546624e-01 0.0000000000000000e+00  1.1225523967713993e-03 -8.7186735769335111e-01 0.0000000000000000e+00  1.4214439456911032e-03 -9.2696346638067184e-01 0.0000000000000000e+00  1.2655090826687032e-03 -8.8845337123765811e-01 0.0000000000000000e+00  1.0847053693788800e-03 -9.2996638896608685e-01 0.0000000000000000e+00  -2.6418669624494462e-03 -8.5164274196156042e-01 0.0000000000000000e+00  2.5545609404897807e-04 -9.9923743699551237e-01 0.0000000000000000e+00  -3.2254465062520055e-04 -9.9328483333451800e-01 0.0000000000000000e+00  1.4186366495898828e-03 -6.9616167780064908e-01 0.0000000000000000e+00  3.6780663176697592e-03 -4.7284745151486446e-01 0.0000000000000000e+00  2.4144034004014436e-04 -8.7631059984192827e-01 0.0000000000000000e+00  2.2509114843970446e-03 -8.0167829804767288e-01 0.0000000000000000e+00  -6.5160601770432314e-04 -9.9016080714074584e-01 0.0000000000000000e+00  1.0080145058217749e-03 -9.7028166197196919e-01 0.0000000000000000e+00  -2.4495440788954159e-03 -9.2157345834044224e-01 0.0000000000000000e+00  -7.6134284717424561e-04 -9.8268546326251593e-01 0.0000000000000000e+00  8.4338735294120504e-04 -9.7271711321415233e-01 0.0000000000000000e+00  1.7452567515641726e-03 -4.5882873495920523e-01 0.0000000000000000e+00  1.6613111804023306e-03 -7.6296499715976651e-01 0.0000000000000000e+00  4.4720587931232347e-03 -8.0086021684390185e-01 0.0000000000000000e+00  3.3833486074197339e-04 -9.9685048244878449e-01 0.0000000000000000e+00  6.4801853950879895e-04 -9.6601579868610421e-01 0.0000000000000000e+00  -9.3147996937958943e-04 -9.6457305369324409e-01 0.0000000000000000e+00  2.2772115203724269e-03 -7.1269815305904183e-01 0.0000000000000000e+00  1.0870999066667081e-03 -8.8542897174599389e-01 0.0000000000000000e+00  -3.4984298788591495e-03 -7.9171226759780633e-01 0.0000000000000000e+00  -2.0815576450166073e-03 -8.1979822103686639e-01 0.0000000000000000e+00  -6.4661610041986083e-04 -9.8139715371573732e-01 0.0000000000000000e+00  1.4158911211948622e-03 -7.6330697721929552e-01 0.0000000000000000e+00  1.2767138794831934e-03 -9.6677333149917200e-01 0.0000000000000000e+00  2.1429665859773461e-04 -9.8754789230362550e-01 0.0000000000000000e+00  8.1846693047893382e-05 -9.9407195772293899e-01 0.0000000000000000e+00  2.2743794988053789e-03 -8.6459924791654685e-01 0.0000000000000000e+00  -1.2835283351102511e-03 -5.1496308038585159e-01 0.0000000000000000e+00  -5.4695139637061033e-05 -7.6640999300771762e-01 0.0000000000000000e+00  2.2915225658854954e-03 -8.6517445685776295e-01 0.0000000000000000e+00  1.9747767141413755e-04 -3.1430891807345807e-01 0.0000000000000000e+00  -5.6612412338352402e-03 -1.8809779339793004e-01 0.0000000000000000e+00  -2.1391874638164166e-03 -8.5140764098051058e-01 0.0000000000000000e+00  1.0652163110626556e-03 -9.3636217694989310e-01 0.0000000000000000e+00  -1.4033144599846781e-04 -8.8759516664918059e-01 0.0000000000000000e+00  -6.9070555063456551e-04 -9.0872274337351999e-01 0.0000000000000000e+00  3.5292922681557093e-03 -4.0362009428579049e-01 0.0000000000000000e+00  9.2831264951298564e-05 -9.9993521814812814e-01 0.0000000000000000e+00  7.6821312583974510e-04 -6.4142449231535970e-01 0.0000000000000000e+00  -3.1943004953189913e-03 -5.3203313447294831e-01 0.0000000000000000e+00  -3.3509065917964875e-03 -5.9426657168075414e-01 0.0000000000000000e+00  -2.3025462139033420e-03 -6.1326651690279954e-01 0.0000000000000000e+00  -4.8488704281214046e-03 -6.6227701656403215e-01 0.0000000000000000e+00  1.4577676032934000e-03 -8.6802134130294073e-01 0.0000000000000000e+00  -2.3415311366755676e-03 -8.7813266400659884e-01 0.0000000000000000e+00  -5.4586117698462999e-04 -9.3284445907019375e-01 0.0000000000000000e+00  -7.1421436688762219e-04 -9.7051101628841341e-01 0.0000000000000000e+00  1.0380969675543861e-03 -2.6320932108665690e-01 0.0000000000000000e+00  1.7151594093074429e-03 -3.5996597404615710e-01 0.0000000000000000e+00  -2.2243284144566194e-03 -3.2085349862306628e-01 0.0000000000000000e+00  7.1968682846150489e-04 -9.5174266493455195e-01 0.0000000000000000e+00  -1.7775657873601511e-04 -9.6329407858910021e-01 0.0000000000000000e+00  -2.8579790759665213e-03 -7.9499870731418865e-01 0.0000000000000000e+00  3.9008547628924251e