<?xml version="1.0"?>
<VTKFile type="UnstructuredGrid"  version="0.1"  >
<UnstructuredGrid>
<Piece  NumberOfPoints="1385" NumberOfCells="2640">
<Points>
<DataArray  type="Float64"  NumberOfComponents="3"  format="ascii">0 0 0  1 0 0  1 1 0  0 1 0  0.5 0 0  1 0.5 0  0.5 1 0  0 0.5 0  0.5 0.5 0  0 0.25 0  0.25 0 0  0.25 1 0  0 0.75 0  1 0.25 0  0.75 0 0  1 0.75 0  0.75 1 0  0.7083333333333333 0.2916666666666667 0  0.2916666666666666 0.7083333333333334 0  0.375 0.25 0  0.75 0.625 0  0.2569444444444444 0.4652777777777778 0  0.5366379310344828 0.7535919540229885 0  0.1875 0.1875 0  0.8125 0.8125 0  0.869047619047619 0.375 0  0.1450441919191919 0.6052714646464646 0  0.375 0.8690476190476191 0  0.5526960784313725 0.1825980392156862 0  0.8385416666666666 0.1614583333333334 0  0.1614583333333333 0.8385416666666667 0  0.6736111111111112 0.4652777777777778 0  0.1367521367521368 0.3477564102564102 0  0.6570970491253563 0.8648656830417855 0  0.5102479397556124 0.3386260301221938 0  0.3654513888888889 0.5737847222222222 0  0.6929750044954185 0.1362784921584263 0  0.388576102743835 0.411911725237599 0  0.6091269841269842 0.5942460317460317 0  0.875 0.6875 0  0.427278890279516 0.119889445139758 0  0.8544456845238095 0.5213913690476191 0  0.125 0 0  0 0.125 0  1 0.875 0  0.875 1 0  0.1280008648150532 0.4769292340226777 0  0.2695382451711197 0.3321750950221553 0  0.7031567235715964 0.7447810921428012 0  0.625 0 0  0.375 0 0  0.125 1 0  0.875 0 0  0 0.375 0  0 0.625 0  1 0.375 0  0.375 1 0  1 0.125 0  0 0.875 0  0.625 1 0  1 0.625 0  0.2979288363930608 0.1201429454643536 0  0.410919540229885 0.7484605911330049 0  0.5325041980395562 0.878905151526474 0  0.4831670727569156 0.6331060043826487 0  0.1735997378973042 0.7204747378973043 0  0.2534919507575758 0.5772372159090909 0  0.2633928571428572 0.8876488095238095 0  0.8199404761904761 0.2730654761904762 0  0.75830270586982 0.3919383189517417 0  0.5750282248382511 0.4237522353023667 0  0.6008360210023379 0.2794828358598495 0  0.08163442644334186 0.6821295860397322 0  0.08333333333333333 0.1875 0  0.2028380815996574 0.08844602719988583 0  0.2766521142611967 0.2325436572164097 0  0.90625 0.78125 0  0.890625 0.890625 0  0.7545696325008384 0.8973565441669461 0  0.5625 0.08086590340834317 0  0.09077380952380953 0.09077380952380952 0  0.4610923478694773 0.209034015149656 0  0.7542527598351648 0.5248380520595106 0  0.6459235536037465 0.3619913988405765 0  0.7560381768882634 0.20506142233852 0  0.07073252688172042 0.8125 0  0.0924753097241701 0.9078102849914793 0  0.9292674731182795 0.1875 0  0.9075246902758297 0.09218971500852073 0  0.8125 0.07073252688172045 0  0.2400955776842301 0.7869705776842302 0  0.9121050213379069 0.2781978201831695 0  0.7916878157143976 0.7239689078571988 0  0.9345238095238094 0.4375 0  0.4375 0.9345238095238095 0  0.3725616989755203 0.6651895248862173 0  0.06536271996350887 0.5625 0  0.9348362560379583 0.5625 0  0.456646798987055 0.8277247094351965 0  0.1875 0.9355758238725954 0  0.6169761231634859 0.6939779188977889 0  0.6226854751147515 0.7827911461419014 0  0.3305695598137626 0.7901697871282585 0  0.5865305325818898 0.5101085479043448 0  0.6622701297028378 0.2177663989757395 0  0.1354166666666667 0.2591702279202279 0  0 0.3125 0  0.2094429575680048 0.3936361846162499 0  0.836666296419157 0.607917407161686 0  0.6875 1 0  0.214261555450504 0.6492551722020035 0  0 0.4375 0  0.07731537126068377 0.40625 0  0.3427725432967068 0.4879566233699599 0  0.3550792513951871 0.3331953632609953 0  0.4462473953896857 0.2887834789342508 0  0.4747801464819794 0.417386052030127 0  0.8229836475148948 0.4443292349237342 0  0.7322605135514757 0.8199240278289671 0  0.6756431877205955 0.5468989748126787 0  0.1968419507215863 0.5194573482612496 0  0.3285590277777778 0.9345238095238095 0  0.8125 1 0  0.4198917601920009 0.5134893045331258 0  0.5232405503206691 0.2595791787880157 0  1 0.9375 0  0.1987510870015086 0.3025185951894431 0  0.5625 1 0  0.6005390654136388 0.9228110509230952 0  0.6411254848194414 0.07704872765442942 0  0.3357233162523242 0.1855113224530532 0  0.6730653396610877 0.6393887462324165 0  0.310966987234063 0.6240019765311626 0  0.7368737836204349 0.07457755202327881 0  0.6192316414418171 0.1485238406378594 0  0.5432429670607106 0.678552703844006 0  0.4754371679695679 0.7103946803120881 0  0.07501324890749672 0.3043839897335739 0  0.5358146975860403 0.5688321463205916 0  0.3115271739500156 0.3982137365971444 0  0.3625191397122174 0.0767854603650549 0  0.5024029442563831 0.1264128223758444 0  0.4375 0 0  0.4699946908887376 0.06379961173775725 0  0.9375 0.71875 0  0.9272105898044465 0.635671179608893 0  0.9375 1 0  0.6690971819568612 0.9331530898202766 0  0.1073454944778885 0.7499206387638554 0  0.8699082999280406 0.2232403652524313 0  0.5773118091863964 0.3548027349159383 0  0.1354166666666667 0.1428571428571428 0  0.3125 0 0  0.8241684193077341 0.9257452995055244 0  0.4352314948354036 0.3586940847489378 0  0.4351301473778832 0.5819726043539077 0  0.8073232928518163 0.3419398170341962 0  0.7775949246947366 0.1298519409204575 0  0.6875 0 0  0.7413513991851041 0.457933324954483 0  0.939453125 0.841796875 0  0.5630355154606987 0.8171875156478349 0  0.9345238095238095 0.3461466592368577 0  0.9375 0 0  1 0.0625 0  0.0625 1 0  0 0.9375 0  0.06552178593177167 0.4969053669623468 0  0.1424866619031703 0.4130277709291224 0  0.1275287182444726 0.5422946908002588 0  0.2637686595586339 0.06413888464529549 0  0.2524263535491086 0.1697437503243817 0  0.7367218397988525 0.6888573970660841 0  0.0625 0 0  0 0.0625 0  0.8463594539285995 0.7578283617857982 0  0.3128751192101563 0.2851997374369947 0  0.4015281788351144 0.1806421385113692 0  0.1910251795116588 0.4553332197174453 0  0.287797471442006 0.5222621440543902 0  0.3962628745986055 0.8097380085535307 0  0.3505895299554843 0.7304878890838692 0  0.5019151500495276 0.9356042615328103 0  0.9374389419410134 0.4999931039076005 0  0.3125 1 0  0.1875 1 0  1 0.5625 0  0.4375 1 0  1 0.3125 0  1 0.4375 0  0.8125 0 0  1 0.1875 0  0.5625 0 0  0.1875 0 0  0 0.1875 0  0 0.5625 0  0 0.6875 0  0 0.8125 0  1 0.6875 0  1 0.8125 0  0.8021696218581627 0.6612893947866073 0  0.06154922295426143 0.6239401126946708 0  0.9359375 0.9359375 0  0.4666158024849896 0.7691515918155014 0  0.2318201265217025 0.7064974250277525 0  0.1565954253579966 0.6635489312486841 0  0.1598132503680848 0.7787147500325552 0  0.3146529991605639 0.8510876378205265 0  0.1461873209418733 0.05982804528877814 0  0.06109554988524315 0.2446551776247686 0  0.8054950308560754 0.5564226538848541 0  0.470541749491976 0.8853316336952531 0  0.6948472567465137 0.4042308563372457 0  0.8802828472348889 0.4658893256343853 0  0.6788075634946739 0.7974194205806069 0  0.2155048659603867 0.2428201584940968 0  0.8131223143423806 0.2132171049028394 0  0.4330798005432235 0.6671274900735726 0  0.6015279126162613 0.2187368078743274 0  0.8061636571464289 0.8703766630361714 0  0.7008230445061776 0.3478568388444072 0  0.8638466246958771 0.3147095987735538 0  0.204801534004265 0.8789209409594009 0  0.2449006736431132 0.9424182882803838 0  0.7611268409371427 0.2643056884799992 0  0.7552800864046191 0.7678006649959446 0  0.5983639638906616 0.864113435029236 0  0.1956559506814437 0.577281203577426 0  0.3527670268164207 0.1320469097565204 0  0.7530364577483248 0.3262386077083089 0  0.4535919187979363 0.4690107087451527 0  0.8824869791666666 0.8336588541666666 0  0.8814453125 0.9451171875 0  0.5582987942628019 0.622421666543858 0  0.6817532446064828 0.6939001801354731 0  0.3830295138888889 0.9450968952922078 0  0.4140603937012541 0.05211333372716105 0  0.5535864501303013 0.3060591985391672 0  0.6560130086346878 0.2729726562211558 0  0.890203140221684 0.5948314305427268 0  0.7043857725999024 0.593980890020804 0  0.5105843922695152 0.8016828014338627 0  0.05365910753708378 0.7315110031682004 0  0.616904573672261 0.4621186633436136 0  0.5338511646455415 0.387875898899613 0  0.5231769258947843 0.4477682463140762 0  0.650302973237622 0.7370722302085519 0  0.3927483139621257 0.4662414504529014 0  0.8034595960585199 0.4972538342758211 0  0.7738337841682438 0.9496376207663251 0  0.7193737507158268 0.954685447650112 0  0.482525916480686 0.5528257169991676 0  0.2533501157346781 0.2809495420003238 0  0.3118487924482243 0.5702930126570319 0  0.6257598847669529 0.4104163315430518 0  0.1354166666666667 0.1955605158730158 0  0.04166666666666666 0.15625 0  0.3956448985530264 0.6174149462065157 0  0.8102897701818546 0.3938784238208349 0  0.2641154190013625 0.8344469561943118 0  0.642852220770013 0.5068794586563659 0  0.05271458179508221 0.355846947336007 0  0.7021551360070266 0.8921457280225779 0  0.5692125776683765 0.1328512638850284 0  0.5206162811937602 0.04865158770992991 0  0.6001838442201555 0.04540556991297563 0  0.2597716608242787 0.4118346398477178 0  0.4040584599473195 0.3179589136784675 0  0.1480337679295207 0.8941560631483065 0  0.1344356707112281 0.9466251177415842 0  0.7114696411829317 0.4983917389078826 0  0.7585704698442475 0.5751926345944629 0  0.2189131956390871 0.04022068508159698 0  0.2476935455192043 0.1123642267635843 0  0.185995005654517 0.1365524537205238 0  0.6223414373308711 0.643380839165121 0  0.5732602596637543 0.7190051747306219 0  0.268358222364537 0.6586246524467934 0  0.3265879848129173 0.2369791782191225 0  0.1267095595787346 0.7034787238999181 0  0.1115202922226038 0.6421997933884982 0  0.3128688392940203 0.07260997451790079 0  0.550724900485678 0.9253360991633187 0  0.7142608810459105 0.2384904702214873 0  0.7045869185243887 0.1871826897887429 0  0.890625 0.734375 0  0.953125 0.765625 0  0.2111812642821677 0.8286209446459138 0  0.9590293078204457 0.09375 0  0.953431269039847 0.1435719386408004 0  0.04097069217955424 0.90625 0  0.04656873096015299 0.8564280613591996 0  0.1078743037981226 0.8541621766048062 0  0.8921256962018773 0.1458378233951939 0  0.8521576979194619 0.1084496634207678 0  0.8655663982740958 0.05464346096571447 0  0.04005659640905543 0.09375 0  0.1001448316533417 0.04246776244228261 
[...]
<PointData  Vectors="f_8394-0-0"> 
<DataArray  type="Float64"  Name="f_8394-0-0"  NumberOfComponents="3" format="ascii">-1.4026876827083739e-02 7.1391902854298032e-03 0.0000000000000000e+00  -8.4394762662293366e-01 1.4892340726180286e-03 0.0000000000000000e+00  -9.1314031524477723e-01 2.5453757286679765e-03 0.0000000000000000e+00  -8.3746267834534327e-01 -1.2984777887057892e-05 0.0000000000000000e+00  -4.8635557914730554e-01 2.9549598455343995e-03 0.0000000000000000e+00  -9.9672488362381972e-01 -5.7933769746575103e-05 0.0000000000000000e+00  -9.9769408496272272e-01 1.7076681702765648e-04 0.0000000000000000e+00  -4.8114404925878629e-01 5.5760909585113039e-03 0.0000000000000000e+00  -8.3831758030590298e-01 -1.7139810438157599e-03 0.0000000000000000e+00  -2.5418958678898562e-01 2.7954798507458800e-03 0.0000000000000000e+00  -2.5496688383048122e-01 3.6976001393243425e-03 0.0000000000000000e+00  -9.4639443641224741e-01 -1.0083772467528451e-03 0.0000000000000000e+00  -6.7398430741917137e-01 4.8481898835332077e-04 0.0000000000000000e+00  -9.4687180790484171e-01 -1.7280100325116621e-03 0.0000000000000000e+00  -6.8425960898890403e-01 -1.0255722034531963e-03 0.0000000000000000e+00  -9.8427825297430793e-01 1.0076664679366520e-03 0.0000000000000000e+00  -9.8555244053349655e-01 6.6003037765094419e-04 0.0000000000000000e+00  -8.4632563640759839e-01 1.4183574305890179e-03 0.0000000000000000e+00  -8.4371062943053943e-01 2.8331511048315106e-03 0.0000000000000000e+00  -5.8089617234425450e-01 -2.4632785127724488e-03 0.0000000000000000e+00  -9.7933142997846256e-01 -9.3528309535753640e-04 0.0000000000000000e+00  -6.6313541771946549e-01 -1.0480802047275750e-03 0.0000000000000000e+00  -9.6341739645589741e-01 5.7592228199138118e-04 0.0000000000000000e+00  -3.5850181418717747e-01 -4.1326661974582235e-03 0.0000000000000000e+00  -9.9878341328609499e-01 2.0818694825641693e-04 0.0000000000000000e+00  -9.4982417210116432e-01 1.0056267577463751e-03 0.0000000000000000e+00  -6.7575020458755841e-01 -1.6244720835994486e-03 0.0000000000000000e+00  -9.5049149204364047e-01 4.7691943786697111e-04 0.0000000000000000e+00  -6.7737028345918193e-01 3.1646294816231602e-03 0.0000000000000000e+00  -8.3629635797777169e-01 -1.5286517173989100e-03 0.0000000000000000e+00  -8.3787751243043174e-01 -2.4282011263612180e-03 0.0000000000000000e+00  -9.1260927110489298e-01 7.2883267628787163e-04 0.0000000000000000e+00  -4.6088869565299240e-01 -1.0845869424958854e-03 0.0000000000000000e+00  -9.9906648180256596e-01 2.0167478667298955e-04 0.0000000000000000e+00  -7.4567043575126035e-01 -3.6141780788700451e-03 0.0000000000000000e+00  -8.1337610884350964e-01 1.6237355724572078e-03 0.0000000000000000e+00  -7.3107655387836590e-01 -2.5545624872240769e-03 0.0000000000000000e+00  -7.1920972636216196e-01 -1.7586546682059386e-03 0.0000000000000000e+00  -9.3135839313163160e-01 -8.5269402383647552e-04 0.0000000000000000e+00  -9.9981737443521224e-01 -5.1251102563404372e-05 0.0000000000000000e+00  -5.2680120455018531e-01 4.1058716769554193e-03 0.0000000000000000e+00  -9.8283773298603672e-01 3.3116630735420538e-04 0.0000000000000000e+00  -1.3314915611910627e-01 4.5795252103336959e-03 0.0000000000000000e+00  -1.1452085363503332e-01 -7.7802623116159791e-04 0.0000000000000000e+00  -9.5443774132356096e-01 1.8237222098410610e-03 0.0000000000000000e+00  -9.5558008656416016e-01 1.1359791543548159e-03 0.0000000000000000e+00  -5.7653001840194051e-01 2.1157714957069640e-03 0.0000000000000000e+00  -5.7020084350272005e-01 -4.7337657415869872e-03 0.0000000000000000e+00  -9.9134230278706303e-01 -4.8670728216715364e-04 0.0000000000000000e+00  -5.9151661682846324e-01 5.7472380759591253e-04 0.0000000000000000e+00  -3.7296215842876046e-01 5.7871178644515187e-03 0.0000000000000000e+00  -8.9883640909714202e-01 -2.2850806684451275e-03 0.0000000000000000e+00  -7.7282705300440069e-01 3.3146353555946195e-03 0.0000000000000000e+00  -3.7255862818798263e-01 5.4628449160809556e-03 0.0000000000000000e+00  -5.9028764924468569e-01 2.3725808311325647e-03 0.0000000000000000e+00  -9.7993300606171763e-01 -1.2012887938586680e-03 0.0000000000000000e+00  -9.7915076431619275e-01 1.8439189413466898e-04 0.0000000000000000e+00  -9.0062364512985904e-01 -2.5118889723300675e-03 0.0000000000000000e+00  -7.6827449037885254e-01 2.6809493492494091e-03 0.0000000000000000e+00  -9.9891432447130668e-01 -5.1073017661067640e-05 0.0000000000000000e+00  -9.9842813255834328e-01 2.9544784711871275e-04 0.0000000000000000e+00  -4.0066229221871369e-01 5.2366658845456049e-03 0.0000000000000000e+00  -9.1445646263908920e-01 -1.3217336447990391e-03 0.0000000000000000e+00  -9.8657696115187488e-01 -9.9023574067913511e-04 0.0000000000000000e+00  -8.9481868045905577e-01 -2.1094762651172605e-03 0.0000000000000000e+00  -7.8470533487322935e-01 2.1657321643087091e-03 0.0000000000000000e+00  -7.4497449517240866e-01 4.7402558246854021e-03 0.0000000000000000e+00  -9.1294903213044043e-01 -2.2414970452390159e-03 0.0000000000000000e+00  -8.8317522632883028e-01 -1.3437582022651773e-03 0.0000000000000000e+00  -9.1309901480051991e-01 1.5627083784277712e-03 0.0000000000000000e+00  -8.4102006054752942e-01 2.5132265419247624e-03 0.0000000000000000e+00  -7.7645984367932896e-01 8.8923002840135545e-04 0.0000000000000000e+00  -6.9171009017854312e-01 -3.4997655630209512e-03 0.0000000000000000e+00  -2.5962271660432423e-01 -5.0392057969917692e-03 0.0000000000000000e+00  -2.7857072074543737e-01 -4.0882538366686094e-03 0.0000000000000000e+00  -4.9405976764039067e-01 3.6343571729153812e-03 0.0000000000000000e+00  -9.9440771197889299e-01 3.7778106615260487e-04 0.0000000000000000e+00  -9.7801326269137301e-01 7.3800487239640328e-04 0.0000000000000000e+00  -9.9720014423044878e-01 1.6316054398679558e-04 0.0000000000000000e+00  -5.9257110777302024e-01 -2.8242326576660703e-03 0.0000000000000000e+00  -1.9057316641160507e-01 3.6743786309703236e-03 0.0000000000000000e+00  -6.1484673637460652e-01 -1.9052944181049414e-03 0.0000000000000000e+00  -9.6031931899911305e-01 7.4257754732709458e-04 0.0000000000000000e+00  -8.4152184733697433e-01 -2.6658015237274180e-03 0.0000000000000000e+00  -8.2408267460651352e-01 -2.5507413384514566e-03 0.0000000000000000e+00  -7.7698287723781456e-01 -2.7297296348383071e-04 0.0000000000000000e+00  -8.4610394504443298e-01 -1.5651361378914855e-03 0.0000000000000000e+00  -9.0219934892697995e-01 1.5347206731555207e-03 0.0000000000000000e+00  -8.3562529851505019e-01 -2.1707835356088445e-03 0.0000000000000000e+00  -7.7701637666514289e-01 3.6710206362778885e-03 0.0000000000000000e+00  -8.5227887140531111e-01 -1.2397781461543911e-03 0.0000000000000000e+00  -9.2632216728134220e-01 -1.7175564118762088e-03 0.0000000000000000e+00  -9.9891431360836092e-01 1.3439676182475102e-04 0.0000000000000000e+00  -9.8165506152371906e-01 5.4851523587144679e-04 0.0000000000000000e+00  -9.8229389043635740e-01 3.1674691393181317e-04 0.0000000000000000e+00  -8.5903389509881811e-01 -1.8699350150618299e-03 0.0000000000000000e+00  -5.8126889816637362e-01 -3.0625540127825479e-03 0.0000000000000000e+00  -9.9773319151419559e-01 7.3202849199122122e-06 0.0000000000000000e+00  -9.6145008022624467e-01 3.4442975913173690e-04 0.0000000000000000e+00  -8.9852275407864401e-01 -2.2068833194573978e-03 0.0000000000000000e+00  -9.6547603606513654e-01 -1.0451200520165127e-03 0.0000000000000000e+00  -9.8439007465828920e-01 -5.7548816098790256e-04 0.0000000000000000e+00  -9.0415200409675944e-01 1.9257428302084101e-03 0.0000000000000000e+00  -8.9366334075211917e-01 1.1769227831576745e-03 0.0000000000000000e+00  -7.6650742460643861e-01 -3.2489526789714063e-03 0.0000000000000000e+00  -3.8695568067398900e-01 2.7533147918622214e-03 0.0000000000000000e+00  -3.1017442549242935e-01 5.7978599095187544e-03 0.0000000000000000e+00  -5.7113966109322079e-01 4.3272186572674010e-03 0.0000000000000000e+00  -9.9104634551199777e-01 -2.0340918957872933e-04 0.0000000000000000e+00  -9.9373073719216798e-01 6.0483445452086393e-04 0.0000000000000000e+00  -7.5489008788539624e-01 -3.2104950599557563e-04 0.0000000000000000e+00  -4.1600606893731584e-01 -2.9010967004809429e-03 0.0000000000000000e+00  -4.5967796739791539e-01 5.9626599408613146e-05 0.0000000000000000e+00  -7.3254028433353890e-01 -1.4669579595403826e-03 0.0000000000000000e+00  -6.3624279718570509e-01 3.4633414467027390e-03 0.0000000000000000e+00  -6.7656294072418244e-01 9.2550187968942765e-04 0.0000000000000000e+00  -7.8490211589760595e-01 1.7009155130279785e-03 0.0000000000000000e+00  -9.5100841439719364e-01 -9.1088336982414475e-04 0.0000000000000000e+00  -1.0000109089116929e+00 -2.4690600422594411e-05 0.0000000000000000e+00  -9.4114543408002960e-01 1.2985526142661463e-03 0.0000000000000000e+00  -6.5364893096334642e-01 4.7345922931265327e-03 0.0000000000000000e+00  -9.5198407877537816e-01 -2.0499490324147884e-03 0.0000000000000000e+00  -9.7361104175102331e-01 9.5391138296763156e-04 0.0000000000000000e+00  -8.0983344976597960e-01 3.0400273615227569e-03 0.0000000000000000e+00  -7.0026369784019793e-01 -1.8365401417131388e-03 0.0000000000000000e+00  -9.3392904446424496e-01 2.3163368868760470e-03 0.0000000000000000e+00  -4.8784267193130820e-01 3.4310166305046089e-03 0.0000000000000000e+00  -9.9989991329769645e-01 -4.3697320073254886e-05 0.0000000000000000e+00  -9.9939772364079060e-01 8.8006084893899050e-05 0.0000000000000000e+00  -6.6268123559015890e-01 1.8588226649381978e-03 0.0000000000000000e+00  -5.0496674265939401e-01 -6.3142825211968956e-03 0.0000000000000000e+00  -9.6782375553928679e-01 -1.1873960463703731e-03 0.0000000000000000e+00  -7.9853569223664911e-01 -1.2197971336155300e-03 0.0000000000000000e+00  -7.3084295774426433e-01 3.7965283734086586e-03 0.0000000000000000e+00  -7.0017055908378811e-01 9.8282688474594926e-04 0.0000000000000000e+00  -9.4310683740452728e-01 1.2089020118385974e-03 0.0000000000000000e+00  -9.3127631531762978e-01 1.8458151719773497e-03 0.0000000000000000e+00  -3.6626905922685060e-01 2.8668356504105569e-03 0.0000000000000000e+00  -8.9766920058687139e-01 6.5709759854637451e-04 0.0000000000000000e+00  -6.5847007033060478e-01 3.2716405817772576e-03 0.0000000000000000e+00  -4.1870553136437294e-01 -3.6391926878756586e-03 0.0000000000000000e+00  -5.9506481791890420e-01 3.2324491807842280e-03 0.0000000000000000e+00  -4.3217223158673079e-01 4.3937420038474562e-03 0.0000000000000000e+00  -5.0684363688726219e-01 -4.3216946564181291e-03 0.0000000000000000e+00  -9.9687706954636868e-01 2.2085248064634966e-04 0.0000000000000000e+00  -9.9975474020642374e-01 -5.3357216583282963e-05 0.0000000000000000e+00  -9.3653936730854537e-01 -1.2091467335252496e-04 0.0000000000000000e+00  -9.9922939454412474e-01 -1.9849519498707502e-04 0.0000000000000000e+00  -7.5222590632280606e-01 -2.6466959432547288e-03 0.0000000000000000e+00  -8.8701804943447005e-01 -1.4488622442679622e-03 0.0000000000000000e+00  -8.0987064733673131e-01 1.0489844942686635e-03 0.0000000000000000e+00  -2.7140968501472174e-01 -2.2017430689387496e-04 0.0000000000000000e+00  -3.1431747931750742e-01 2.8358425618450391e-03 0.0000000000000000e+00  -9.8225075027644038e-01 -8.5401250982375387e-04 0.0000000000000000e+00  -7.1958445338090249e-01 1.6458300246449398e-03 0.0000000000000000e+00  -8.5425136464371887e-01 2.7533906884986692e-03 0.0000000000000000e+00  -9.1665154070645560e-01 9.3372856980822316e-04 0.0000000000000000e+00  -7.9342421429169896e-01 3.1101134411966047e-03 0.0000000000000000e+00  -6.4008329765717820e-01 2.9474196058006893e-03 0.0000000000000000e+00  -9.2821242010346094e-01 -1.2843664094380203e-03 0.0000000000000000e+00  -9.7576227103985169e-01 -7.5089014367024642e-04 0.0000000000000000e+00  -9.8048367684499571e-01 -1.1958557533764402e-03 0.0000000000000000e+00  -9.5543750258812010e-01 -1.7667494878920165e-03 0.0000000000000000e+00  -8.1034820382506723e-01 3.2715091360405735e-03 0.0000000000000000e+00  -8.6978209649015614e-01 -2.1462548298986639e-03 0.0000000000000000e+00  -8.7103415958016728e-01 -2.8462226672572033e-03 0.0000000000000000e+00  -7.9999454671636216e-01 -3.3297766238776783e-04 0.0000000000000000e+00  -5.2709353129310788e-01 -1.4232956383303727e-03 0.0000000000000000e+00  -5.3207328815369448e-01 -1.0456841568856068e-03 0.0000000000000000e+00  -6.2619190300709660e-01 -3.1061560120888084e-03 0.0000000000000000e+00  -3.1691718233886002e-01 1.9793942506778125e-03 0.0000000000000000e+00  -4.1940152050402701e-01 3.4657897673708304e-03 0.0000000000000000e+00  -9.9118773020141671e-01 2.3618285087012580e-04 0.0000000000000000e+00  -7.1045286201693397e-02 5.2924379604931959e-03 0.0000000000000000e+00  -5.3852314895684518e-02 -1.5417986135214702e-03 0.0000000000000000e+00  -9.9961342694269195e-01 2.0055134893787185e-04 0.0000000000000000e+00  -5.5748869373316856e-01 -4.7908071634236160e-03 0.0000000000000000e+00  -5.5852707594256346e-01 1.1816156652845744e-03 0.0000000000000000e+00  -5.9488024378608373e-01 -4.8630008199259667e-03 0.0000000000000000e+00  -7.2404358069437214e-01 -3.6034219459409322e-03 0.0000000000000000e+00  -9.3178175484299675e-01 -1.1006026546540038e-03 0.0000000000000000e+00  -8.8682017911717737e-01 -1.4035350648416989e-04 0.0000000000000000e+00  -9.9116881551771474e-01 -5.2271618860384381e-04 0.0000000000000000e+00  -9.9205584166836636e-01 5.2208125973973729e-04 0.0000000000000000e+00  -9.6519260397413031e-01 -6.0669972037330488e-04 0.0000000000000000e+00  -9.2403296368795607e-01 -2.1813108370504208e-03 0.0000000000000000e+00  -9.9972300176064754e-01 -3.0390782512434988e-05 0.0000000000000000e+00  -9.8993021847009754e-01 2.1902489244512863e-04 0.0000000000000000e+00  -9.6527240598128561e-01 -1.4318943815613827e-03 0.0000000000000000e+00  -9.9100045892901356e-01 -5.9164090556390603e-04 0.0000000000000000e+00  -7.2997868480871164e-01 2.4147143687734979e-03 0.0000000000000000e+00  -9.2428799622790625e-01 -1.8085723722157665e-03 0.0000000000000000e+00  -5.4020995651316506e-01 5.0702263354410193e-03 0.0000000000000000e+00  -1.9460469121239590e-01 2.5194022827198809e-03 0.0000000000000000e+00  -1.9401896100878580e-01 2.5507112394520803e-03 0.0000000000000000e+00  -5.2320411383793475e-01 -3.2762333410457992e-04 0.0000000000000000e+00  -6.2848294053514386e-01 -1.8251864479735813e-03 0.0000000000000000e+00  -7.2650903502528352e-01 2.6023744641844627e-03 0.0000000000000000e+00  -9.9318463807079271e-01 6.6315796625704415e-04 0.0000000000000000e+00  -9.6816683349877697e-01 -6.0283462848864655e-04 0.0000000000000000e+00  -9.9456674645111054e-01 4.7645903850812577e-04 0.0000000000000000e+00  -6.3976947845468513e-01 -8.8583049792669705e-04 0.0000000000000000e+00  -9.5235512544300294e-01 -5.0437208630971231e-04 0.0000000000000000e+00  -9.4758254478968529e-01 1.1105934040208654e-03 0.0000000000000000e+00  -8.1090687232915337e-01 2.9077721413701685e-03 0.0000000000000000e+00  -7.3347694635866512e-01 -3.9488465250293037e-03 0.0000000000000000e+00  -8.1231342307827059e-01 -5.1396272817338939e-04 0.0000000000000000e+00  -9.2169513617574306e-01 1.8222857469949449e-03 0.0000000000000000e+00  -2.1189415549078761e-01 5.4287939006876229e-03 0.0000000000000000e+00  -2.9321103489456535e-01 -4.2475677040329507e-03 0.0000000000000000e+00  -9.8015954552827211e-01 5.4512143369284116e-04 0.0000000000000000e+00  -9.7879089991816870e-01 1.1751011808296408e-03 0.0000000000000000e+00  -8.8654099069335757e-01 -1.4004141275758553e-03 0.0000000000000000e+00  -9.7694812659650321e-01 5.1223453774998373e-04 0.0000000000000000e+00  -9.9477425883211368e-01 -4.7486647631098111e-04 0.0000000000000000e+00  -4.5040118561041992e-01 3.3878818377457223e-03 0.0000000000000000e+00  -8.5951660589238066e-01 2.1547032605919725e-03 0.0000000000000000e+00  -8.9594902421039169e-01 3.4400133325842575e-03 0.0000000000000000e+00  -7.2551356198831385e-01 -4.0742805768990975e-04 0.0000000000000000e+00  -9.9359851131891230e-01 -3.9465156381959798e-04 0.0000000000000000e+00  -8.7136573304441578e-01 1.4339550225102027e-03 0.0000000000000000e+00  -9.2673768401432710e-01 1.0366538770837652e-03 0.0000000000000000e+00  -8.8117971178373478e-01 1.0551251623941438e-03 0.0000000000000000e+00  -9.3078113674430962e-01 1.3521538159533553e-03 0.0000000000000000e+00  -8.5054992763230808e-01 -2.6198159084676043e-03 0.0000000000000000e+00  -9.9916468804114045e-01 1.4576992857284754e-04 0.0000000000000000e+00  -9.9467799102321330e-01 -2.5940123859463649e-04 0.0000000000000000e+00  -7.0446530549420383e-01 1.6050848979972665e-03 0.0000000000000000e+00  -4.6921105971942068e-01 4.8337422128556795e-03 0.0000000000000000e+00  -8.7703142676309487e-01 -6.8634675149831237e-04 0.0000000000000000e+00  -8.0172505259654292e-01 2.6405288969594265e-03 0.0000000000000000e+00  -9.8792409030670614e-01 -7.0432031382527960e-04 0.0000000000000000e+00  -9.6700595888686958e-01 1.0262918667656162e-03 0.0000000000000000e+00  -9.2231159093597836e-01 -2.5062729153241259e-03 0.0000000000000000e+00  -9.7886276297922736e-01 -6.7311344157811037e-04 0.0000000000000000e+00  -9.7317698197254399e-01 9.8373628555194215e-04 0.0000000000000000e+00  -4.6028882638639246e-01 2.6546299695781317e-03 0.0000000000000000e+00  -7.6348060393747663e-01 1.6101582279436366e-03 0.0000000000000000e+00  -8.0622378177954102e-01 3.4375526742066453e-03 0.0000000000000000e+00  -9.9680619161418138e-01 4.1237478814726281e-04 0.0000000000000000e+00  -9.6610057731798493e-01 8.9079208085930672e-04 0.0000000000000000e+00  -9.6660436238858549e-01 -1.1139343469666052e-03 0.0000000000000000e+00  -7.1168519718220147e-01 1.7133220160707452e-03 0.0000000000000000e+00  -8.8551876811907360e-01 1.2375229351687667e-03 0.0000000000000000e+00  -7.9177512044430087e-01 -3.6612880901861766e-03 0.0000000000000000e+00  -8.2103100424695619e-01 -2.6382626147266192e-03 0.0000000000000000e+00  -9.8174277188781833e-01 -6.6606014425840687e-04 0.0000000000000000e+00  -7.5138339647447849e-01 1.5107051405152290e-03 0.0000000000000000e+00  -9.6245255951947295e-01 1.4434629295785040e-03 0.0000000000000000e+00  -9.8938656938921876e-01 1.7285620377949229e-04 0.0000000000000000e+00  -9.9554174740587076e-01 1.3276044078797122e-04 0.0000000000000000e+00  -8.6020731366906733e-01 1.9978542697337842e-03 0.0000000000000000e+00  -5.0550435917532688e-01 -7.5204254235672341e-04 0.0000000000000000e+00  -7.6578155555613359e-01 -5.6927792435956803e-04 0.0000000000000000e+00  -8.6249715320741394e-01 2.9053027263664377e-03 0.0000000000000000e+00  -3.1606642585308842e-01 -1.0534971010701666e-03 0.0000000000000000e+00  -1.9343078262015617e-01 -4.2470257039857601e-03 0.0000000000000000e+00  -8.4370742088676298e-01 -2.1479277226490456e-03 0.0000000000000000e+00  -9.3667197009094372e-01 8.6587260638350261e-04 0.0000000000000000e+00  -8.8708404042076550e-01 -6.6900922321788681e-04 0.0000000000000000e+00  -9.0884192296686439e-01 -8.6903022891815507e-04 0.0000000000000000e+00  -4.0540866247212526e-01 3.8994736710007590e-03 0.0000000000000000e+00  -9.9976080140642520e-01 1.6441718518167558e-04 0.0000000000000000e+00  -6.4849635111531534e-01 1.6147062685675229e-03 0.0000000000000000e+00  -5.3311977097548868e-01 -3.1340989801405122e-03 0.0000000000000000e+00  -6.0310628643244890e-01 -2.6371251009367075e-03 0.0000000000000000e+00  -6.1531124247524416e-01 -2.3613350972282454e-03 0.0000000000000000e+00  -6.5502185157434289e-01 -4.3519815808076290e-03 0.0000000000000000e+00  -8.6791517356538594e-01 1.4078049206526222e-03 0.0000000000000000e+00  -8.8321645109519542e-01 -2.3146749740908523e-03 0.0000000000000000e+00  -9.3240249592800373e-01 -8.4036349721208076e-04 0.0000000000000000e+00  -9.7013880135164676e-01 -6.5292785132836650e-04 0.0000000000000000e+00  -2.5521247112649154e-01 1.5470448252127567e-03 0.0000000000000000e+00  -3.4935854505006531e-01 1.8897258006014832e-03 0.0000000000000000e+00  -3.1260973419053484e-01 -1.7203060651960478e-03 0.0000000000000000e+00  -9.5694512629830153e-01 8.1709235907206912e-04 0.0000000000000000e+00  -9.5916049770685763e-01 -2.2661104813093136e-04 0.0000000000000000e+00  -7.9674568669504331e-01 -3.0809414258371470e-03 0.0000000000000000e+00  -5.4110996