<?xml version="1.0"?>
<VTKFile type="UnstructuredGrid"  version="0.1"  >
<UnstructuredGrid>
<Piece  NumberOfPoints="1385" NumberOfCells="2640">
<Points>
<DataArray  type="Float64"  NumberOfComponents="3"  format="ascii">0 0 0  1 0 0  1 1 0  0 1 0  0.5 0 0  1 0.5 0  0.5 1 0  0 0.5 0  0.5 0.5 0  0 0.25 0  0.25 0 0  0.25 1 0  0 0.75 0  1 0.25 0  0.75 0 0  1 0.75 0  0.75 1 0  0.7083333333333333 0.2916666666666667 0  0.2916666666666666 0.7083333333333334 0  0.375 0.25 0  0.75 0.625 0  0.2569444444444444 0.4652777777777778 0  0.5366379310344828 0.7535919540229885 0  0.1875 0.1875 0  0.8125 0.8125 0  0.869047619047619 0.375 0  0.1450441919191919 0.6052714646464646 0  0.375 0.8690476190476191 0  0.5526960784313725 0.1825980392156862 0  0.8385416666666666 0.1614583333333334 0  0.1614583333333333 0.8385416666666667 0  0.6736111111111112 0.4652777777777778 0  0.1367521367521368 0.3477564102564102 0  0.6570970491253563 0.8648656830417855 0  0.5102479397556124 0.3386260301221938 0  0.3654513888888889 0.5737847222222222 0  0.6929750044954185 0.1362784921584263 0  0.388576102743835 0.411911725237599 0  0.6091269841269842 0.5942460317460317 0  0.875 0.6875 0  0.427278890279516 0.119889445139758 0  0.8544456845238095 0.5213913690476191 0  0.125 0 0  0 0.125 0  1 0.875 0  0.875 1 0  0.1280008648150532 0.4769292340226777 0  0.2695382451711197 0.3321750950221553 0  0.7031567235715964 0.7447810921428012 0  0.625 0 0  0.375 0 0  0.125 1 0  0.875 0 0  0 0.375 0  0 0.625 0  1 0.375 0  0.375 1 0  1 0.125 0  0 0.875 0  0.625 1 0  1 0.625 0  0.2979288363930608 0.1201429454643536 0  0.410919540229885 0.7484605911330049 0  0.5325041980395562 0.878905151526474 0  0.4831670727569156 0.6331060043826487 0  0.1735997378973042 0.7204747378973043 0  0.2534919507575758 0.5772372159090909 0  0.2633928571428572 0.8876488095238095 0  0.8199404761904761 0.2730654761904762 0  0.75830270586982 0.3919383189517417 0  0.5750282248382511 0.4237522353023667 0  0.6008360210023379 0.2794828358598495 0  0.08163442644334186 0.6821295860397322 0  0.08333333333333333 0.1875 0  0.2028380815996574 0.08844602719988583 0  0.2766521142611967 0.2325436572164097 0  0.90625 0.78125 0  0.890625 0.890625 0  0.7545696325008384 0.8973565441669461 0  0.5625 0.08086590340834317 0  0.09077380952380953 0.09077380952380952 0  0.4610923478694773 0.209034015149656 0  0.7542527598351648 0.5248380520595106 0  0.6459235536037465 0.3619913988405765 0  0.7560381768882634 0.20506142233852 0  0.07073252688172042 0.8125 0  0.0924753097241701 0.9078102849914793 0  0.9292674731182795 0.1875 0  0.9075246902758297 0.09218971500852073 0  0.8125 0.07073252688172045 0  0.2400955776842301 0.7869705776842302 0  0.9121050213379069 0.2781978201831695 0  0.7916878157143976 0.7239689078571988 0  0.9345238095238094 0.4375 0  0.4375 0.9345238095238095 0  0.3725616989755203 0.6651895248862173 0  0.06536271996350887 0.5625 0  0.9348362560379583 0.5625 0  0.456646798987055 0.8277247094351965 0  0.1875 0.9355758238725954 0  0.6169761231634859 0.6939779188977889 0  0.6226854751147515 0.7827911461419014 0  0.3305695598137626 0.7901697871282585 0  0.5865305325818898 0.5101085479043448 0  0.6622701297028378 0.2177663989757395 0  0.1354166666666667 0.2591702279202279 0  0 0.3125 0  0.2094429575680048 0.3936361846162499 0  0.836666296419157 0.607917407161686 0  0.6875 1 0  0.214261555450504 0.6492551722020035 0  0 0.4375 0  0.07731537126068377 0.40625 0  0.3427725432967068 0.4879566233699599 0  0.3550792513951871 0.3331953632609953 0  0.4462473953896857 0.2887834789342508 0  0.4747801464819794 0.417386052030127 0  0.8229836475148948 0.4443292349237342 0  0.7322605135514757 0.8199240278289671 0  0.6756431877205955 0.5468989748126787 0  0.1968419507215863 0.5194573482612496 0  0.3285590277777778 0.9345238095238095 0  0.8125 1 0  0.4198917601920009 0.5134893045331258 0  0.5232405503206691 0.2595791787880157 0  1 0.9375 0  0.1987510870015086 0.3025185951894431 0  0.5625 1 0  0.6005390654136388 0.9228110509230952 0  0.6411254848194414 0.07704872765442942 0  0.3357233162523242 0.1855113224530532 0  0.6730653396610877 0.6393887462324165 0  0.310966987234063 0.6240019765311626 0  0.7368737836204349 0.07457755202327881 0  0.6192316414418171 0.1485238406378594 0  0.5432429670607106 0.678552703844006 0  0.4754371679695679 0.7103946803120881 0  0.07501324890749672 0.3043839897335739 0  0.5358146975860403 0.5688321463205916 0  0.3115271739500156 0.3982137365971444 0  0.3625191397122174 0.0767854603650549 0  0.5024029442563831 0.1264128223758444 0  0.4375 0 0  0.4699946908887376 0.06379961173775725 0  0.9375 0.71875 0  0.9272105898044465 0.635671179608893 0  0.9375 1 0  0.6690971819568612 0.9331530898202766 0  0.1073454944778885 0.7499206387638554 0  0.8699082999280406 0.2232403652524313 0  0.5773118091863964 0.3548027349159383 0  0.1354166666666667 0.1428571428571428 0  0.3125 0 0  0.8241684193077341 0.9257452995055244 0  0.4352314948354036 0.3586940847489378 0  0.4351301473778832 0.5819726043539077 0  0.8073232928518163 0.3419398170341962 0  0.7775949246947366 0.1298519409204575 0  0.6875 0 0  0.7413513991851041 0.457933324954483 0  0.939453125 0.841796875 0  0.5630355154606987 0.8171875156478349 0  0.9345238095238095 0.3461466592368577 0  0.9375 0 0  1 0.0625 0  0.0625 1 0  0 0.9375 0  0.06552178593177167 0.4969053669623468 0  0.1424866619031703 0.4130277709291224 0  0.1275287182444726 0.5422946908002588 0  0.2637686595586339 0.06413888464529549 0  0.2524263535491086 0.1697437503243817 0  0.7367218397988525 0.6888573970660841 0  0.0625 0 0  0 0.0625 0  0.8463594539285995 0.7578283617857982 0  0.3128751192101563 0.2851997374369947 0  0.4015281788351144 0.1806421385113692 0  0.1910251795116588 0.4553332197174453 0  0.287797471442006 0.5222621440543902 0  0.3962628745986055 0.8097380085535307 0  0.3505895299554843 0.7304878890838692 0  0.5019151500495276 0.9356042615328103 0  0.9374389419410134 0.4999931039076005 0  0.3125 1 0  0.1875 1 0  1 0.5625 0  0.4375 1 0  1 0.3125 0  1 0.4375 0  0.8125 0 0  1 0.1875 0  0.5625 0 0  0.1875 0 0  0 0.1875 0  0 0.5625 0  0 0.6875 0  0 0.8125 0  1 0.6875 0  1 0.8125 0  0.8021696218581627 0.6612893947866073 0  0.06154922295426143 0.6239401126946708 0  0.9359375 0.9359375 0  0.4666158024849896 0.7691515918155014 0  0.2318201265217025 0.7064974250277525 0  0.1565954253579966 0.6635489312486841 0  0.1598132503680848 0.7787147500325552 0  0.3146529991605639 0.8510876378205265 0  0.1461873209418733 0.05982804528877814 0  0.06109554988524315 0.2446551776247686 0  0.8054950308560754 0.5564226538848541 0  0.470541749491976 0.8853316336952531 0  0.6948472567465137 0.4042308563372457 0  0.8802828472348889 0.4658893256343853 0  0.6788075634946739 0.7974194205806069 0  0.2155048659603867 0.2428201584940968 0  0.8131223143423806 0.2132171049028394 0  0.4330798005432235 0.6671274900735726 0  0.6015279126162613 0.2187368078743274 0  0.8061636571464289 0.8703766630361714 0  0.7008230445061776 0.3478568388444072 0  0.8638466246958771 0.3147095987735538 0  0.204801534004265 0.8789209409594009 0  0.2449006736431132 0.9424182882803838 0  0.7611268409371427 0.2643056884799992 0  0.7552800864046191 0.7678006649959446 0  0.5983639638906616 0.864113435029236 0  0.1956559506814437 0.577281203577426 0  0.3527670268164207 0.1320469097565204 0  0.7530364577483248 0.3262386077083089 0  0.4535919187979363 0.4690107087451527 0  0.8824869791666666 0.8336588541666666 0  0.8814453125 0.9451171875 0  0.5582987942628019 0.622421666543858 0  0.6817532446064828 0.6939001801354731 0  0.3830295138888889 0.9450968952922078 0  0.4140603937012541 0.05211333372716105 0  0.5535864501303013 0.3060591985391672 0  0.6560130086346878 0.2729726562211558 0  0.890203140221684 0.5948314305427268 0  0.7043857725999024 0.593980890020804 0  0.5105843922695152 0.8016828014338627 0  0.05365910753708378 0.7315110031682004 0  0.616904573672261 0.4621186633436136 0  0.5338511646455415 0.387875898899613 0  0.5231769258947843 0.4477682463140762 0  0.650302973237622 0.7370722302085519 0  0.3927483139621257 0.4662414504529014 0  0.8034595960585199 0.4972538342758211 0  0.7738337841682438 0.9496376207663251 0  0.7193737507158268 0.954685447650112 0  0.482525916480686 0.5528257169991676 0  0.2533501157346781 0.2809495420003238 0  0.3118487924482243 0.5702930126570319 0  0.6257598847669529 0.4104163315430518 0  0.1354166666666667 0.1955605158730158 0  0.04166666666666666 0.15625 0  0.3956448985530264 0.6174149462065157 0  0.8102897701818546 0.3938784238208349 0  0.2641154190013625 0.8344469561943118 0  0.642852220770013 0.5068794586563659 0  0.05271458179508221 0.355846947336007 0  0.7021551360070266 0.8921457280225779 0  0.5692125776683765 0.1328512638850284 0  0.5206162811937602 0.04865158770992991 0  0.6001838442201555 0.04540556991297563 0  0.2597716608242787 0.4118346398477178 0  0.4040584599473195 0.3179589136784675 0  0.1480337679295207 0.8941560631483065 0  0.1344356707112281 0.9466251177415842 0  0.7114696411829317 0.4983917389078826 0  0.7585704698442475 0.5751926345944629 0  0.2189131956390871 0.04022068508159698 0  0.2476935455192043 0.1123642267635843 0  0.185995005654517 0.1365524537205238 0  0.6223414373308711 0.643380839165121 0  0.5732602596637543 0.7190051747306219 0  0.268358222364537 0.6586246524467934 0  0.3265879848129173 0.2369791782191225 0  0.1267095595787346 0.7034787238999181 0  0.1115202922226038 0.6421997933884982 0  0.3128688392940203 0.07260997451790079 0  0.550724900485678 0.9253360991633187 0  0.7142608810459105 0.2384904702214873 0  0.7045869185243887 0.1871826897887429 0  0.890625 0.734375 0  0.953125 0.765625 0  0.2111812642821677 0.8286209446459138 0  0.9590293078204457 0.09375 0  0.953431269039847 0.1435719386408004 0  0.04097069217955424 0.90625 0  0.04656873096015299 0.8564280613591996 0  0.1078743037981226 0.8541621766048062 0  0.8921256962018773 0.1458378233951939 0  0.8521576979194619 0.1084496634207678 0  0.8655663982740958 0.05464346096571447 0  0.04005659640905543 0.09375 0  0.1001448316533417 0.04246776244228261 
[...]
<PointData  Vectors="f_8394-0-1"> 
<DataArray  type="Float64"  Name="f_8394-0-1"  NumberOfComponents="3" format="ascii">4.2154144831045050e-03 -1.7426306678582432e-02 0.0000000000000000e+00  1.4837657269276406e-03 -8.4249753331492594e-01 0.0000000000000000e+00  2.4028898691087768e-03 -9.1302855094482882e-01 0.0000000000000000e+00  1.0209912466244012e-05 -8.4539698247140282e-01 0.0000000000000000e+00  3.0511601134267374e-03 -4.8595360367019202e-01 0.0000000000000000e+00  -1.3607920189306899e-04 -9.9703796104507481e-01 0.0000000000000000e+00  1.0112740396972519e-04 -9.9774644282664704e-01 0.0000000000000000e+00  5.2797877208127786e-03 -4.8439765825016440e-01 0.0000000000000000e+00  -2.1268849760830433e-03 -8.3686007650675276e-01 0.0000000000000000e+00  1.6675656619117413e-03 -2.5578182262207427e-01 0.0000000000000000e+00  4.0894938880393084e-03 -2.5512954543481187e-01 0.0000000000000000e+00  -9.8212727282021017e-04 -9.4606421227543558e-01 0.0000000000000000e+00  1.0314421716149918e-03 -6.8643060027465319e-01 0.0000000000000000e+00  -1.7675293884805710e-03 -9.4649116116733401e-01 0.0000000000000000e+00  -1.6298369592973039e-03 -6.7491135333185959e-01 0.0000000000000000e+00  1.0588239649778064e-03 -9.8546760871219363e-01 0.0000000000000000e+00  6.4052762495415277e-04 -9.8367384637149236e-01 0.0000000000000000e+00  1.2902977871592780e-03 -8.4662339011654364e-01 0.0000000000000000e+00  3.3764466297901974e-03 -8.4579262514822862e-01 0.0000000000000000e+00  -2.2249969878454234e-03 -5.8038231969526888e-01 0.0000000000000000e+00  -7.7233752325805982e-04 -9.7991887419355561e-01 0.0000000000000000e+00  1.1369925473347919e-06 -6.5531452360473974e-01 0.0000000000000000e+00  1.0068514935349659e-03 -9.6381624136209620e-01 0.0000000000000000e+00  -4.1082585639559584e-03 -3.5817254176308055e-01 0.0000000000000000e+00  3.1980603264381013e-04 -9.9865894737512595e-01 0.0000000000000000e+00  8.5508209410664615e-04 -9.5101752654485183e-01 0.0000000000000000e+00  -1.5192900624457772e-03 -6.7517926950295493e-01 0.0000000000000000e+00  8.2623956972793788e-04 -9.5008601030628215e-01 0.0000000000000000e+00  3.0555975732975693e-03 -6.6915969710650536e-01 0.0000000000000000e+00  -1.7583184309628436e-03 -8.4703263168169951e-01 0.0000000000000000e+00  -2.2844589704116292e-03 -8.3788599442878575e-01 0.0000000000000000e+00  4.1137677623420688e-04 -9.1266426502548359e-01 0.0000000000000000e+00  -1.3622529837470920e-03 -4.7055075292197890e-01 0.0000000000000000e+00  1.9810916136331347e-04 -9.9905541901974693e-01 0.0000000000000000e+00  -4.3624097344209800e-03 -7.4620531190471273e-01 0.0000000000000000e+00  1.3178234681852086e-03 -8.1281504376066849e-01 0.0000000000000000e+00  -2.2454234595088440e-03 -7.3234753210912451e-01 0.0000000000000000e+00  -1.8161130379287238e-03 -7.1415284035278648e-01 0.0000000000000000e+00  -8.2431761287719840e-04 -9.3311715470066825e-01 0.0000000000000000e+00  -6.6438389068501635e-05 -9.9996537971891897e-01 0.0000000000000000e+00  4.4801381177803912e-03 -5.2892022103136471e-01 0.0000000000000000e+00  3.4722520977670257e-04 -9.8282042311316475e-01 0.0000000000000000e+00  4.5890705585687995e-03 -1.2720153061347156e-01 0.0000000000000000e+00  -1.2884412786719462e-04 -1.3072865889906315e-01 0.0000000000000000e+00  1.9197462349324068e-03 -9.5654761716772352e-01 0.0000000000000000e+00  1.1079892697488103e-03 -9.5535621439554974e-01 0.0000000000000000e+00  3.1412844261091977e-03 -5.7442315640151975e-01 0.0000000000000000e+00  -4.2359031957561188e-03 -5.5900152921156754e-01 0.0000000000000000e+00  -3.9012525956738653e-04 -9.9122937225464436e-01 0.0000000000000000e+00  1.8484348707417109e-03 -5.9119056149329685e-01 0.0000000000000000e+00  5.9397667921201325e-03 -3.6887607216604268e-01 0.0000000000000000e+00  -2.2967083473248995e-03 -9.0043606370322582e-01 0.0000000000000000e+00  3.4058325143420942e-03 -7.7053641459228306e-01 0.0000000000000000e+00  5.7670339680398475e-03 -3.7650561310097092e-01 0.0000000000000000e+00  1.6606791117198551e-03 -5.9048014258871284e-01 0.0000000000000000e+00  -1.2617738843603288e-03 -9.7921303399423509e-01 0.0000000000000000e+00  1.5411880598763250e-04 -9.8294000855242147e-01 0.0000000000000000e+00  -2.5568392149503127e-03 -8.9971809057682517e-01 0.0000000000000000e+00  2.8824160298913659e-03 -7.7220268764914568e-01 0.0000000000000000e+00  1.0611722935172097e-04 -9.9860712545471642e-01 0.0000000000000000e+00  2.6699832667209655e-04 -9.9876444796853159e-01 0.0000000000000000e+00  4.3099884442558134e-03 -4.1646306175747760e-01 0.0000000000000000e+00  -1.0086034219186080e-03 -9.1473246643536310e-01 0.0000000000000000e+00  -1.0146867029561801e-03 -9.8675055271936374e-01 0.0000000000000000e+00  -2.1110862465548580e-03 -8.9569537554723311e-01 0.0000000000000000e+00  2.2079376369504994e-03 -7.8432673927995222e-01 0.0000000000000000e+00  5.1482249730970264e-03 -7.4102319909936454e-01 0.0000000000000000e+00  -2.0460131280273242e-03 -9.0847270802097990e-01 0.0000000000000000e+00  -8.0254413176253370e-04 -8.8324373400715794e-01 0.0000000000000000e+00  1.1653722790158083e-03 -9.1638238534746563e-01 0.0000000000000000e+00  2.5832986105438493e-03 -8.4564004092400802e-01 0.0000000000000000e+00  7.2162309264978131e-04 -7.7720663980901228e-01 0.0000000000000000e+00  -3.7102645663386613e-03 -6.8607526493423854e-01 0.0000000000000000e+00  -4.1825920250318088e-03 -2.6627700864330833e-01 0.0000000000000000e+00  -3.9312981531875735e-03 -2.7875473280020802e-01 0.0000000000000000e+00  3.0765048183260396e-03 -4.9230197179178747e-01 0.0000000000000000e+00  7.8241749168567187e-04 -9.9215192970053334e-01 0.0000000000000000e+00  4.4696338355842968e-04 -9.7953620776185191e-01 0.0000000000000000e+00  2.5066694418968832e-04 -9.9633672731292955e-01 0.0000000000000000e+00  -2.5557518280383065e-03 -6.0106352315272848e-01 0.0000000000000000e+00  4.3175479639238623e-03 -1.7459677686977348e-01 0.0000000000000000e+00  -8.6345465874004823e-04 -6.1484145766184217e-01 0.0000000000000000e+00  5.8101744508087805e-04 -9.6026081751226633e-01 0.0000000000000000e+00  -2.5834350340555867e-03 -8.4781296909463744e-01 0.0000000000000000e+00  -2.3397632781108901e-03 -8.1516261990508265e-01 0.0000000000000000e+00  7.6264950544135957e-04 -7.7972774942653067e-01 0.0000000000000000e+00  -1.2554984328319030e-03 -8.3660177262460633e-01 0.0000000000000000e+00  1.4079135405694748e-03 -9.0361299071033385e-01 0.0000000000000000e+00  -2.4233210142784734e-03 -8.4209982318342402e-01 0.0000000000000000e+00  3.7793999928553701e-03 -7.7559083397837847e-01 0.0000000000000000e+00  -1.8104265225521894e-03 -8.5141508178025971e-01 0.0000000000000000e+00  -1.2295410901171921e-03 -9.2689416270784541e-01 0.0000000000000000e+00  2.0596551508306193e-04 -9.9911624409850996e-01 0.0000000000000000e+00  6.0988504246939357e-04 -9.8221863161147127e-01 0.0000000000000000e+00  3.5775718129249512e-04 -9.8172414628800164e-01 0.0000000000000000e+00  -2.3719170633409448e-03 -8.5728298319143525e-01 0.0000000000000000e+00  -2.5852284064238028e-03 -5.8099137079204954e-01 0.0000000000000000e+00  1.7597705874006220e-04 -9.9813383180848470e-01 0.0000000000000000e+00  1.5762392466117658e-04 -9.5801044535766122e-01 0.0000000000000000e+00  -1.9440032163638987e-03 -8.9837201560256508e-01 0.0000000000000000e+00  -1.5015567331759516e-03 -9.6431495005548173e-01 0.0000000000000000e+00  -5.0369516597104091e-04 -9.8488934226020297e-01 0.0000000000000000e+00  2.0572172614706508e-03 -9.0305945442206970e-01 0.0000000000000000e+00  7.4518317360294795e-04 -8.9369084331917459e-01 0.0000000000000000e+00  -3.5901914777775046e-03 -7.6836779492850171e-01 0.0000000000000000e+00  3.6401516556437974e-03 -3.9053671925150357e-01 0.0000000000000000e+00  5.7419046732706813e-03 -3.1350512939235953e-01 0.0000000000000000e+00  4.2658505867623764e-03 -5.7466459687518112e-01 0.0000000000000000e+00  -1.6135374625536603e-04 -9.9255786381758648e-01 0.0000000000000000e+00  6.2376676294068067e-04 -9.9319594134740741e-01 0.0000000000000000e+00  7.2191811410604600e-05 -7.5523824085633495e-01 0.0000000000000000e+00  -2.6296184234499923e-03 -4.2689124949713758e-01 0.0000000000000000e+00  -4.1001594642867123e-04 -4.7295023015179005e-01 0.0000000000000000e+00  -1.5364139112937214e-03 -7.3137206703317426e-01 0.0000000000000000e+00  2.6724708836725064e-03 -6.4186602458192032e-01 0.0000000000000000e+00  1.9230573915453575e-03 -6.7949105776460073e-01 0.0000000000000000e+00  1.0151575551406444e-03 -7.8508943004504428e-01 0.0000000000000000e+00  -5.0531402371570278e-04 -9.5119084350743810e-01 0.0000000000000000e+00  1.7963830852285589e-06 -9.9991869834878200e-01 0.0000000000000000e+00  1.2626579101515656e-03 -9.4274315425697075e-01 0.0000000000000000e+00  3.6960386933823641e-03 -6.6271904115336344e-01 0.0000000000000000e+00  -2.0367234668028367e-03 -9.4992687900076556e-01 0.0000000000000000e+00  9.4605211956005908e-04 -9.7083667876109592e-01 0.0000000000000000e+00  2.3945198707292191e-03 -8.0421685948171395e-01 0.0000000000000000e+00  -2.6681940327174525e-03 -7.0062844218874498e-01 0.0000000000000000e+00  2.2364423682408319e-03 -9.3648921116193606e-01 0.0000000000000000e+00  3.4809926555366966e-03 -4.8835646373592112e-01 0.0000000000000000e+00  -8.1898760783903981e-05 -9.9967687131720351e-01 0.0000000000000000e+00  2.4043500784498573e-05 -9.9855072645823317e-01 0.0000000000000000e+00  1.2775823234291162e-03 -6.6416673054502440e-01 0.0000000000000000e+00  -3.7016543409296720e-03 -4.8709491366433072e-01 0.0000000000000000e+00  -1.0665839058546789e-03 -9.6463511397879897e-01 0.0000000000000000e+00  -1.5013965190677769e-03 -7.9825703585990926e-01 0.0000000000000000e+00  4.2077032229391742e-03 -7.3119066092643759e-01 0.0000000000000000e+00  2.3246722934717745e-03 -7.0136390090834055e-01 0.0000000000000000e+00  1.1830491960949097e-03 -9.4311700233152096e-01 0.0000000000000000e+00  1.9268094781007272e-03 -9.3065982804642922e-01 0.0000000000000000e+00  3.2622855386987559e-03 -3.7878212727160049e-01 0.0000000000000000e+00  9.0037423421579065e-04 -8.8981221882833850e-01 0.0000000000000000e+00  2.6892197312848864e-03 -6.5826057667445581e-01 0.0000000000000000e+00  -4.3746326584725437e-03 -4.2097266880793338e-01 0.0000000000000000e+00  2.6982156729988965e-03 -5.9469673913327881e-01 0.0000000000000000e+00  4.3983417999779867e-03 -4.2780420420055493e-01 0.0000000000000000e+00  -4.1352964620510191e-03 -5.0143507550820243e-01 0.0000000000000000e+00  2.0326244314176206e-04 -9.9713874502703392e-01 0.0000000000000000e+00  -8.3641383388372015e-05 -1.0000169971120074e+00 0.0000000000000000e+00  -3.1749276553492967e-04 -9.2889682786719185e-01 0.0000000000000000e+00  -2.1530342179054696e-04 -9.9898194056433687e-01 0.0000000000000000e+00  -3.5232348404783398e-03 -7.4927390131429517e-01 0.0000000000000000e+00  -1.5476360561375024e-03 -8.8333851430797061e-01 0.0000000000000000e+00  8.8947610084733064e-04 -8.0880128870527412e-01 0.0000000000000000e+00  2.7456056172675547e-04 -2.8263021199971938e-01 0.0000000000000000e+00  3.0647989527958774e-03 -3.1396718142376240e-01 0.0000000000000000e+00  -1.0397492200387159e-03 -9.8494626045264144e-01 0.0000000000000000e+00  2.1932988039359280e-03 -7.1916660728550030e-01 0.0000000000000000e+00  3.1122463603981410e-03 -8.5291650597407376e-01 0.0000000000000000e+00  7.5568604071783729e-04 -9.1701245872442683e-01 0.0000000000000000e+00  2.9624702571028894e-03 -7.9128779416738593e-01 0.0000000000000000e+00  2.4428215676428888e-03 -6.4099245532282723e-01 0.0000000000000000e+00  -7.1921033786922356e-04 -9.2866873644931824e-01 0.0000000000000000e+00  -7.5905228361317079e-04 -9.7551671767497039e-01 0.0000000000000000e+00  -1.1896653081574504e-03 -9.8080525336791713e-01 0.0000000000000000e+00  -1.5359402909712605e-03 -9.5690262663219794e-01 0.0000000000000000e+00  3.2627465150034118e-03 -8.0927513933306661e-01 0.0000000000000000e+00  -2.1173193925348999e-03 -8.6984874575989768e-01 0.0000000000000000e+00  -2.7274017299258047e-03 -8.7210161177993772e-01 0.0000000000000000e+00  3.5729750252205057e-04 -8.0962860367022527e-01 0.0000000000000000e+00  -2.1603647941497162e-03 -5.2621299051112724e-01 0.0000000000000000e+00  -6.7084131582795248e-04 -5.2044589784092710e-01 0.0000000000000000e+00  -2.3526871348222844e-03 -6.1144945122861794e-01 0.0000000000000000e+00  2.5024937387331248e-03 -3.3160574819452432e-01 0.0000000000000000e+00  3.8810525454121836e-03 -4.1971700662976319e-01 0.0000000000000000e+00  1.3737255069501408e-04 -9.9136319633626802e-01 0.0000000000000000e+00  4.8809263571104079e-03 -6.6741365145946710e-02 0.0000000000000000e+00  -3.2522099739012956e-04 -6.7546445723992016e-02 0.0000000000000000e+00  1.3172582897957863e-04 -9.9970451518475845e-01 0.0000000000000000e+00  -5.2795492329071603e-03 -5.5666866352288291e-01 0.0000000000000000e+00  1.1763216644331553e-03 -5.5922577452270172e-01 0.0000000000000000e+00  -4.7014835482624973e-03 -5.9826256075858353e-01 0.0000000000000000e+00  -3.0999409073210193e-03 -7.1916801231276883e-01 0.0000000000000000e+00  -1.6100677813957742e-03 -9.3048437002587858e-01 0.0000000000000000e+00  2.7817329093909882e-04 -8.8741153930024619e-01 0.0000000000000000e+00  -6.0676372044587978e-04 -9.8990379950085283e-01 0.0000000000000000e+00  5.3567124163585167e-04 -9.9231917622908583e-01 0.0000000000000000e+00  -5.9564773600251364e-04 -9.6472625367915876e-01 0.0000000000000000e+00  -2.0789154760464390e-03 -9.2501266160684792e-01 0.0000000000000000e+00  -1.9205927895300990e-04 -1.0000104658214350e+00 0.0000000000000000e+00  1.7621280372423498e-04 -9.9250579464145672e-01 0.0000000000000000e+00  -1.4784350144585456e-03 -9.6508281437108090e-01 0.0000000000000000e+00  -5.6422383918353081e-04 -9.8987821676773358e-01 0.0000000000000000e+00  2.2835379038760196e-03 -7.3133058410932006e-01 0.0000000000000000e+00  -1.8843901882202863e-03 -9.2446545673255121e-01 0.0000000000000000e+00  5.1980802013892047e-03 -5.3698184735170795e-01 0.0000000000000000e+00  2.9254685730136926e-03 -1.9449669567079214e-01 0.0000000000000000e+00  2.4347102892521792e-03 -1.9343061594533772e-01 0.0000000000000000e+00  -2.2810198878541366e-04 -5.4265602339604857e-01 0.0000000000000000e+00  -1.6520240192665204e-03 -6.3510012889755152e-01 0.0000000000000000e+00  2.5310641906691744e-03 -7.3338338298213668e-01 0.0000000000000000e+00  6.4546238136498069e-04 -9.9372141176609519e-01 0.0000000000000000e+00  -4.9576251660101865e-04 -9.7264828212601706e-01 0.0000000000000000e+00  4.2173294830893937e-04 -9.9532933267522272e-01 0.0000000000000000e+00  -3.0324366493574006e-04 -6.2325044557778697e-01 0.0000000000000000e+00  -8.9434933748042122e-04 -9.5172385763655531e-01 0.0000000000000000e+00  1.0751484820221702e-03 -9.4783243631818359e-01 0.0000000000000000e+00  3.6506020867995703e-03 -8.0998053263941661e-01 0.0000000000000000e+00  -3.0243702016350404e-03 -7.2428588986073639e-01 0.0000000000000000e+00  -5.2622841743171778e-04 -8.0318966333610931e-01 0.0000000000000000e+00  1.9069122491697788e-03 -9.2089196950629870e-01 0.0000000000000000e+00  4.4597971407453266e-03 -2.1168365286751073e-01 0.0000000000000000e+00  -5.2706878023906015e-03 -2.9740410132638617e-01 0.0000000000000000e+00  5.0626449400409390e-04 -9.8014000497747444e-01 0.0000000000000000e+00  1.2217682988665546e-03 -9.7722100734574224e-01 0.0000000000000000e+00  -9.7527409595649095e-04 -8.9348995829630229e-01 0.0000000000000000e+00  5.7608890737703700e-04 -9.7728433338378817e-01 0.0000000000000000e+00  -3.2841860679178048e-04 -9.9494631741113582e-01 0.0000000000000000e+00  2.9834154726313677e-03 -4.5057858805763212e-01 0.0000000000000000e+00  2.6013135674558679e-03 -8.5730949066618123e-01 0.0000000000000000e+00  3.8633907958694480e-03 -8.9204340573253171e-01 0.0000000000000000e+00  -4.4104574945692115e-04 -7.3797090917452457e-01 0.0000000000000000e+00  -4.9943696070309240e-04 -9.9347529299139803e-01 0.0000000000000000e+00  1.1219896913372690e-03 -8.7211561687153649e-01 0.0000000000000000e+00  1.4263723225030282e-03 -9.2726167744334254e-01 0.0000000000000000e+00  1.2674185097134028e-03 -8.8831303905538228e-01 0.0000000000000000e+00  1.0843965790053867e-03 -9.2979102782999612e-01 0.0000000000000000e+00  -2.6417817809788191e-03 -8.5194344638825825e-01 0.0000000000000000e+00  2.5736787367364178e-04 -9.9916982953605937e-01 0.0000000000000000e+00  -3.2076792336166449e-04 -9.9315605004308460e-01 0.0000000000000000e+00  1.4221329609181710e-03 -6.9615459623646192e-01 0.0000000000000000e+00  3.6793296876677095e-03 -4.7304295949737640e-01 0.0000000000000000e+00  2.4335757485771659e-04 -8.7657278167111063e-01 0.0000000000000000e+00  2.2508459593899577e-03 -8.0180928866929690e-01 0.0000000000000000e+00  -6.4958176882085050e-04 -9.8998157817855104e-01 0.0000000000000000e+00  1.0139520052668827e-03 -9.6997943138153631e-01 0.0000000000000000e+00  -2.4489161071087340e-03 -9.2162982517027958e-01 0.0000000000000000e+00  -7.6093883329075851e-04 -9.8269447987133418e-01 0.0000000000000000e+00  8.3943965584198921e-04 -9.7253580522303373e-01 0.0000000000000000e+00  1.7407425706971735e-03 -4.5908166287817365e-01 0.0000000000000000e+00  1.6630425489196077e-03 -7.6319567049804915e-01 0.0000000000000000e+00  4.4785087917816879e-03 -8.0112974871578768e-01 0.0000000000000000e+00  3.3730459996481055e-04 -9.9691871941113486e-01 0.0000000000000000e+00  6.4905659496317103e-04 -9.6610032335175378e-01 0.0000000000000000e+00  -9.3309234869631830e-04 -9.6450230219783517e-01 0.0000000000000000e+00  2.2857967413328351e-03 -7.1257948230073687e-01 0.0000000000000000e+00  1.0900056019471499e-03 -8.8559749555480494e-01 0.0000000000000000e+00  -3.5004936241075646e-03 -7.9189458082274100e-01 0.0000000000000000e+00  -2.0825931017167676e-03 -8.1994625953829003e-01 0.0000000000000000e+00  -6.5087473777521306e-04 -9.8137076139478396e-01 0.0000000000000000e+00  1.4206332157932489e-03 -7.6341763120925599e-01 0.0000000000000000e+00  1.2774225108072024e-03 -9.6693438503827722e-01 0.0000000000000000e+00  2.1338879675891764e-04 -9.8728210751946610e-01 0.0000000000000000e+00  8.0198960029392863e-05 -9.9382111519737215e-01 0.0000000000000000e+00  2.2765674236031597e-03 -8.6468993125333360e-01 0.0000000000000000e+00  -1.2822886719167925e-03 -5.1507082131031612e-01 0.0000000000000000e+00  -5.7006825306035822e-05 -7.6643776574581834e-01 0.0000000000000000e+00  2.2938070135005706e-03 -8.6537148205985104e-01 0.0000000000000000e+00  2.0638039332010472e-04 -3.1433419898149390e-01 0.0000000000000000e+00  -5.6734281018407107e-03 -1.8803758493629819e-01 0.0000000000000000e+00  -2.1426766334614461e-03 -8.5144583162301601e-01 0.0000000000000000e+00  1.0697252749339303e-03 -9.3659774521251715e-01 0.0000000000000000e+00  -1.4098902857459517e-04 -8.8748223198649279e-01 0.0000000000000000e+00  -6.9109385904336795e-04 -9.0885818119191220e-01 0.0000000000000000e+00  3.5216911526492201e-03 -4.0359735531463536e-01 0.0000000000000000e+00  9.3845992167107539e-05 -9.9975495787604007e-01 0.0000000000000000e+00  7.7559815036609692e-04 -6.4172186935338982e-01 0.0000000000000000e+00  -3.1988754719449730e-03 -5.3232465223199388e-01 0.0000000000000000e+00  -3.3550370766896598e-03 -5.9458649555439191e-01 0.0000000000000000e+00  -2.3075833108292532e-03 -6.1330556091878730e-01 0.0000000000000000e+00  -4.8535633640829079e-03 -6.6244175125738303e-01 0.0000000000000000e+00  1.4611319750898188e-03 -8.6786246007475565e-01 0.0000000000000000e+00  -2.3337208110083552e-03 -8.7793128443525537e-01 0.0000000000000000e+00  -5.4650964048097439e-04 -9.3299593900441180e-01 0.0000000000000000e+00  -7.1646218574955567e-04 -9.7061036697315928e-01 0.0000000000000000e+00  1.0243889646223137e-03 -2.6334938277872921e-01 0.0000000000000000e+00  1.7135107170815345e-03 -3.6011036311572431e-01 0.0000000000000000e+00  -2.2297474431909742e-03 -3.2093879067687958e-01 0.0000000000000000e+00  7.2027356923362595e-04 -9.5178796933167820e-01 0.0000000000000000e+00  -1.7768801216473326e-04 -9.6328922406428885e-01 0.0000000000000000e+00  -2.8582179552826270e-03 -7.9498263705562056e-01 0.0000000000000000e+00  3.8857493680435895e-