<?xml version="1.0"?>
<VTKFile type="UnstructuredGrid"  version="0.1"  >
<UnstructuredGrid>
<Piece  NumberOfPoints="1385" NumberOfCells="2640">
<Points>
<DataArray  type="Float64"  NumberOfComponents="3"  format="ascii">0 0 0  1 0 0  1 1 0  0 1 0  0.5 0 0  1 0.5 0  0.5 1 0  0 0.5 0  0.5 0.5 0  0 0.25 0  0.25 0 0  0.25 1 0  0 0.75 0  1 0.25 0  0.75 0 0  1 0.75 0  0.75 1 0  0.7083333333333333 0.2916666666666667 0  0.2916666666666666 0.7083333333333334 0  0.375 0.25 0  0.75 0.625 0  0.2569444444444444 0.4652777777777778 0  0.5366379310344828 0.7535919540229885 0  0.1875 0.1875 0  0.8125 0.8125 0  0.869047619047619 0.375 0  0.1450441919191919 0.6052714646464646 0  0.375 0.8690476190476191 0  0.5526960784313725 0.1825980392156862 0  0.8385416666666666 0.1614583333333334 0  0.1614583333333333 0.8385416666666667 0  0.6736111111111112 0.4652777777777778 0  0.1367521367521368 0.3477564102564102 0  0.6570970491253563 0.8648656830417855 0  0.5102479397556124 0.3386260301221938 0  0.3654513888888889 0.5737847222222222 0  0.6929750044954185 0.1362784921584263 0  0.388576102743835 0.411911725237599 0  0.6091269841269842 0.5942460317460317 0  0.875 0.6875 0  0.427278890279516 0.119889445139758 0  0.8544456845238095 0.5213913690476191 0  0.125 0 0  0 0.125 0  1 0.875 0  0.875 1 0  0.1280008648150532 0.4769292340226777 0  0.2695382451711197 0.3321750950221553 0  0.7031567235715964 0.7447810921428012 0  0.625 0 0  0.375 0 0  0.125 1 0  0.875 0 0  0 0.375 0  0 0.625 0  1 0.375 0  0.375 1 0  1 0.125 0  0 0.875 0  0.625 1 0  1 0.625 0  0.2979288363930608 0.1201429454643536 0  0.410919540229885 0.7484605911330049 0  0.5325041980395562 0.878905151526474 0  0.4831670727569156 0.6331060043826487 0  0.1735997378973042 0.7204747378973043 0  0.2534919507575758 0.5772372159090909 0  0.2633928571428572 0.8876488095238095 0  0.8199404761904761 0.2730654761904762 0  0.75830270586982 0.3919383189517417 0  0.5750282248382511 0.4237522353023667 0  0.6008360210023379 0.2794828358598495 0  0.08163442644334186 0.6821295860397322 0  0.08333333333333333 0.1875 0  0.2028380815996574 0.08844602719988583 0  0.2766521142611967 0.2325436572164097 0  0.90625 0.78125 0  0.890625 0.890625 0  0.7545696325008384 0.8973565441669461 0  0.5625 0.08086590340834317 0  0.09077380952380953 0.09077380952380952 0  0.4610923478694773 0.209034015149656 0  0.7542527598351648 0.5248380520595106 0  0.6459235536037465 0.3619913988405765 0  0.7560381768882634 0.20506142233852 0  0.07073252688172042 0.8125 0  0.0924753097241701 0.9078102849914793 0  0.9292674731182795 0.1875 0  0.9075246902758297 0.09218971500852073 0  0.8125 0.07073252688172045 0  0.2400955776842301 0.7869705776842302 0  0.9121050213379069 0.2781978201831695 0  0.7916878157143976 0.7239689078571988 0  0.9345238095238094 0.4375 0  0.4375 0.9345238095238095 0  0.3725616989755203 0.6651895248862173 0  0.06536271996350887 0.5625 0  0.9348362560379583 0.5625 0  0.456646798987055 0.8277247094351965 0  0.1875 0.9355758238725954 0  0.6169761231634859 0.6939779188977889 0  0.6226854751147515 0.7827911461419014 0  0.3305695598137626 0.7901697871282585 0  0.5865305325818898 0.5101085479043448 0  0.6622701297028378 0.2177663989757395 0  0.1354166666666667 0.2591702279202279 0  0 0.3125 0  0.2094429575680048 0.3936361846162499 0  0.836666296419157 0.607917407161686 0  0.6875 1 0  0.214261555450504 0.6492551722020035 0  0 0.4375 0  0.07731537126068377 0.40625 0  0.3427725432967068 0.4879566233699599 0  0.3550792513951871 0.3331953632609953 0  0.4462473953896857 0.2887834789342508 0  0.4747801464819794 0.417386052030127 0  0.8229836475148948 0.4443292349237342 0  0.7322605135514757 0.8199240278289671 0  0.6756431877205955 0.5468989748126787 0  0.1968419507215863 0.5194573482612496 0  0.3285590277777778 0.9345238095238095 0  0.8125 1 0  0.4198917601920009 0.5134893045331258 0  0.5232405503206691 0.2595791787880157 0  1 0.9375 0  0.1987510870015086 0.3025185951894431 0  0.5625 1 0  0.6005390654136388 0.9228110509230952 0  0.6411254848194414 0.07704872765442942 0  0.3357233162523242 0.1855113224530532 0  0.6730653396610877 0.6393887462324165 0  0.310966987234063 0.6240019765311626 0  0.7368737836204349 0.07457755202327881 0  0.6192316414418171 0.1485238406378594 0  0.5432429670607106 0.678552703844006 0  0.4754371679695679 0.7103946803120881 0  0.07501324890749672 0.3043839897335739 0  0.5358146975860403 0.5688321463205916 0  0.3115271739500156 0.3982137365971444 0  0.3625191397122174 0.0767854603650549 0  0.5024029442563831 0.1264128223758444 0  0.4375 0 0  0.4699946908887376 0.06379961173775725 0  0.9375 0.71875 0  0.9272105898044465 0.635671179608893 0  0.9375 1 0  0.6690971819568612 0.9331530898202766 0  0.1073454944778885 0.7499206387638554 0  0.8699082999280406 0.2232403652524313 0  0.5773118091863964 0.3548027349159383 0  0.1354166666666667 0.1428571428571428 0  0.3125 0 0  0.8241684193077341 0.9257452995055244 0  0.4352314948354036 0.3586940847489378 0  0.4351301473778832 0.5819726043539077 0  0.8073232928518163 0.3419398170341962 0  0.7775949246947366 0.1298519409204575 0  0.6875 0 0  0.7413513991851041 0.457933324954483 0  0.939453125 0.841796875 0  0.5630355154606987 0.8171875156478349 0  0.9345238095238095 0.3461466592368577 0  0.9375 0 0  1 0.0625 0  0.0625 1 0  0 0.9375 0  0.06552178593177167 0.4969053669623468 0  0.1424866619031703 0.4130277709291224 0  0.1275287182444726 0.5422946908002588 0  0.2637686595586339 0.06413888464529549 0  0.2524263535491086 0.1697437503243817 0  0.7367218397988525 0.6888573970660841 0  0.0625 0 0  0 0.0625 0  0.8463594539285995 0.7578283617857982 0  0.3128751192101563 0.2851997374369947 0  0.4015281788351144 0.1806421385113692 0  0.1910251795116588 0.4553332197174453 0  0.287797471442006 0.5222621440543902 0  0.3962628745986055 0.8097380085535307 0  0.3505895299554843 0.7304878890838692 0  0.5019151500495276 0.9356042615328103 0  0.9374389419410134 0.4999931039076005 0  0.3125 1 0  0.1875 1 0  1 0.5625 0  0.4375 1 0  1 0.3125 0  1 0.4375 0  0.8125 0 0  1 0.1875 0  0.5625 0 0  0.1875 0 0  0 0.1875 0  0 0.5625 0  0 0.6875 0  0 0.8125 0  1 0.6875 0  1 0.8125 0  0.8021696218581627 0.6612893947866073 0  0.06154922295426143 0.6239401126946708 0  0.9359375 0.9359375 0  0.4666158024849896 0.7691515918155014 0  0.2318201265217025 0.7064974250277525 0  0.1565954253579966 0.6635489312486841 0  0.1598132503680848 0.7787147500325552 0  0.3146529991605639 0.8510876378205265 0  0.1461873209418733 0.05982804528877814 0  0.06109554988524315 0.2446551776247686 0  0.8054950308560754 0.5564226538848541 0  0.470541749491976 0.8853316336952531 0  0.6948472567465137 0.4042308563372457 0  0.8802828472348889 0.4658893256343853 0  0.6788075634946739 0.7974194205806069 0  0.2155048659603867 0.2428201584940968 0  0.8131223143423806 0.2132171049028394 0  0.4330798005432235 0.6671274900735726 0  0.6015279126162613 0.2187368078743274 0  0.8061636571464289 0.8703766630361714 0  0.7008230445061776 0.3478568388444072 0  0.8638466246958771 0.3147095987735538 0  0.204801534004265 0.8789209409594009 0  0.2449006736431132 0.9424182882803838 0  0.7611268409371427 0.2643056884799992 0  0.7552800864046191 0.7678006649959446 0  0.5983639638906616 0.864113435029236 0  0.1956559506814437 0.577281203577426 0  0.3527670268164207 0.1320469097565204 0  0.7530364577483248 0.3262386077083089 0  0.4535919187979363 0.4690107087451527 0  0.8824869791666666 0.8336588541666666 0  0.8814453125 0.9451171875 0  0.5582987942628019 0.622421666543858 0  0.6817532446064828 0.6939001801354731 0  0.3830295138888889 0.9450968952922078 0  0.4140603937012541 0.05211333372716105 0  0.5535864501303013 0.3060591985391672 0  0.6560130086346878 0.2729726562211558 0  0.890203140221684 0.5948314305427268 0  0.7043857725999024 0.593980890020804 0  0.5105843922695152 0.8016828014338627 0  0.05365910753708378 0.7315110031682004 0  0.616904573672261 0.4621186633436136 0  0.5338511646455415 0.387875898899613 0  0.5231769258947843 0.4477682463140762 0  0.650302973237622 0.7370722302085519 0  0.3927483139621257 0.4662414504529014 0  0.8034595960585199 0.4972538342758211 0  0.7738337841682438 0.9496376207663251 0  0.7193737507158268 0.954685447650112 0  0.482525916480686 0.5528257169991676 0  0.2533501157346781 0.2809495420003238 0  0.3118487924482243 0.5702930126570319 0  0.6257598847669529 0.4104163315430518 0  0.1354166666666667 0.1955605158730158 0  0.04166666666666666 0.15625 0  0.3956448985530264 0.6174149462065157 0  0.8102897701818546 0.3938784238208349 0  0.2641154190013625 0.8344469561943118 0  0.642852220770013 0.5068794586563659 0  0.05271458179508221 0.355846947336007 0  0.7021551360070266 0.8921457280225779 0  0.5692125776683765 0.1328512638850284 0  0.5206162811937602 0.04865158770992991 0  0.6001838442201555 0.04540556991297563 0  0.2597716608242787 0.4118346398477178 0  0.4040584599473195 0.3179589136784675 0  0.1480337679295207 0.8941560631483065 0  0.1344356707112281 0.9466251177415842 0  0.7114696411829317 0.4983917389078826 0  0.7585704698442475 0.5751926345944629 0  0.2189131956390871 0.04022068508159698 0  0.2476935455192043 0.1123642267635843 0  0.185995005654517 0.1365524537205238 0  0.6223414373308711 0.643380839165121 0  0.5732602596637543 0.7190051747306219 0  0.268358222364537 0.6586246524467934 0  0.3265879848129173 0.2369791782191225 0  0.1267095595787346 0.7034787238999181 0  0.1115202922226038 0.6421997933884982 0  0.3128688392940203 0.07260997451790079 0  0.550724900485678 0.9253360991633187 0  0.7142608810459105 0.2384904702214873 0  0.7045869185243887 0.1871826897887429 0  0.890625 0.734375 0  0.953125 0.765625 0  0.2111812642821677 0.8286209446459138 0  0.9590293078204457 0.09375 0  0.953431269039847 0.1435719386408004 0  0.04097069217955424 0.90625 0  0.04656873096015299 0.8564280613591996 0  0.1078743037981226 0.8541621766048062 0  0.8921256962018773 0.1458378233951939 0  0.8521576979194619 0.1084496634207678 0  0.8655663982740958 0.05464346096571447 0  0.04005659640905543 0.09375 0  0.1001448316533417 0.04246776244228261 
[...]
<PointData  Vectors="f_8394-0-1"> 
<DataArray  type="Float64"  Name="f_8394-0-1"  NumberOfComponents="3" format="ascii">4.2152031059437788e-03 -1.7435561090205116e-02 0.0000000000000000e+00  1.4826304756394633e-03 -8.4233106552468051e-01 0.0000000000000000e+00  2.3990044254159713e-03 -9.1317318115544077e-01 0.0000000000000000e+00  1.0863741949890910e-05 -8.4547675428882696e-01 0.0000000000000000e+00  3.0509050225533269e-03 -4.8585489006868005e-01 0.0000000000000000e+00  -1.3641801548824883e-04 -9.9699380047442654e-01 0.0000000000000000e+00  1.0010459996312449e-04 -9.9782438276466601e-01 0.0000000000000000e+00  5.2768414562798238e-03 -4.8442187420268251e-01 0.0000000000000000e+00  -2.1263949936155546e-03 -8.3681991192835203e-01 0.0000000000000000e+00  1.6702379298655055e-03 -2.5579126862733020e-01 0.0000000000000000e+00  4.0905752880784907e-03 -2.5507748722278589e-01 0.0000000000000000e+00  -9.8246555501166344e-04 -9.4614061638411284e-01 0.0000000000000000e+00  1.0306933557475298e-03 -6.8647875501837630e-01 0.0000000000000000e+00  -1.7676452665604803e-03 -9.4637902620669845e-01 0.0000000000000000e+00  -1.6304358750901526e-03 -6.7477381822729787e-01 0.0000000000000000e+00  1.0605324981547426e-03 -9.8551062825742941e-01 0.0000000000000000e+00  6.4180096328919634e-04 -9.8377956680185452e-01 0.0000000000000000e+00  1.2895805636266022e-03 -8.4652796238877970e-01 0.0000000000000000e+00  3.3753017907822702e-03 -8.4580204284100313e-01 0.0000000000000000e+00  -2.2244990358548378e-03 -5.8032516218049934e-01 0.0000000000000000e+00  -7.7245606516002097e-04 -9.7989870369604359e-01 0.0000000000000000e+00  9.0830340970793344e-07 -6.5529668683342779e-01 0.0000000000000000e+00  1.0059411274138119e-03 -9.6382548494035181e-01 0.0000000000000000e+00  -4.1072418771522234e-03 -3.5814689468220640e-01 0.0000000000000000e+00  3.1915409216387580e-04 -9.9870103359041340e-01 0.0000000000000000e+00  8.5514016089077716e-04 -9.5093226173377421e-01 0.0000000000000000e+00  -1.5191604392279789e-03 -6.7519265215999369e-01 0.0000000000000000e+00  8.2578000609112578e-04 -9.5012497718535327e-01 0.0000000000000000e+00  3.0543220337970189e-03 -6.6906854333553922e-01 0.0000000000000000e+00  -1.7581315301318998e-03 -8.4690600456354348e-01 0.0000000000000000e+00  -2.2840048721592954e-03 -8.3792984123909353e-01 0.0000000000000000e+00  4.1098480674024718e-04 -9.1260460424852696e-01 0.0000000000000000e+00  -1.3614768099417252e-03 -4.7053996828312045e-01 0.0000000000000000e+00  1.9840311484609074e-04 -9.9910116257651638e-01 0.0000000000000000e+00  -4.3614447551221236e-03 -7.4613948907724825e-01 0.0000000000000000e+00  1.3171974180330448e-03 -8.1279579484835851e-01 0.0000000000000000e+00  -2.2452400712307252e-03 -7.3223365562821519e-01 0.0000000000000000e+00  -1.8156623896152801e-03 -7.1411101216712336e-01 0.0000000000000000e+00  -8.2419411489194350e-04 -9.3308862560529782e-01 0.0000000000000000e+00  -6.6123892765723724e-05 -9.9997004948571366e-01 0.0000000000000000e+00  4.4793757742421642e-03 -5.2883976055539783e-01 0.0000000000000000e+00  3.4711432638134809e-04 -9.8277247435536830e-01 0.0000000000000000e+00  4.5936700349191832e-03 -1.2718328018139910e-01 0.0000000000000000e+00  -1.2405130214688436e-04 -1.3073949397200815e-01 0.0000000000000000e+00  1.9224872851264507e-03 -9.5664298921144697e-01 0.0000000000000000e+00  1.1109892649372455e-03 -9.5548185728547863e-01 0.0000000000000000e+00  3.1409683592705795e-03 -5.7442327805856075e-01 0.0000000000000000e+00  -4.2347270841000539e-03 -5.5896980120778716e-01 0.0000000000000000e+00  -3.9028615882460982e-04 -9.9124169790163397e-01 0.0000000000000000e+00  1.8493601315498487e-03 -5.9106842943902616e-01 0.0000000000000000e+00  5.9386877109120217e-03 -3.6880142380334491e-01 0.0000000000000000e+00  -2.2974121061047625e-03 -9.0051520818407560e-01 0.0000000000000000e+00  3.4046664538982807e-03 -7.7038710010844391e-01 0.0000000000000000e+00  5.7662024009934587e-03 -3.7652507873541108e-01 0.0000000000000000e+00  1.6633193850061378e-03 -5.9051349084039351e-01 0.0000000000000000e+00  -1.2615132322156830e-03 -9.7913233811765310e-01 0.0000000000000000e+00  1.5262969933008130e-04 -9.8301210548105877e-01 0.0000000000000000e+00  -2.5571442683119949e-03 -8.9957688310125694e-01 0.0000000000000000e+00  2.8806108803043351e-03 -7.7226756227632254e-01 0.0000000000000000e+00  1.0830073655099248e-04 -9.9869595947426593e-01 0.0000000000000000e+00  2.6738732993647485e-04 -9.9875977989183606e-01 0.0000000000000000e+00  4.3090742847651797e-03 -4.1640670528797646e-01 0.0000000000000000e+00  -1.0080251437889487e-03 -9.1474404520998953e-01 0.0000000000000000e+00  -1.0137640922230906e-03 -9.8679382878715116e-01 0.0000000000000000e+00  -2.1105512436419144e-03 -8.9568080753470092e-01 0.0000000000000000e+00  2.2072276538606800e-03 -7.8434905476779426e-01 0.0000000000000000e+00  5.1466029238911859e-03 -7.4101738496145120e-01 0.0000000000000000e+00  -2.0462653514923268e-03 -9.0852094758698421e-01 0.0000000000000000e+00  -8.0243618628064728e-04 -8.8314106092034717e-01 0.0000000000000000e+00  1.1651165121397966e-03 -9.1630345273326375e-01 0.0000000000000000e+00  2.5822953105159030e-03 -8.4557804286989069e-01 0.0000000000000000e+00  7.2133584838512954e-04 -7.7711977553064404e-01 0.0000000000000000e+00  -3.7090483150671316e-03 -6.8610842108294601e-01 0.0000000000000000e+00  -4.1806245452184199e-03 -2.6627264829309449e-01 0.0000000000000000e+00  -3.9299548868549639e-03 -2.7872066668224377e-01 0.0000000000000000e+00  3.0753337832346572e-03 -4.9225849014562928e-01 0.0000000000000000e+00  7.8164449557047155e-04 -9.9219479992900794e-01 0.0000000000000000e+00  4.4693336722478882e-04 -9.7961771124710562e-01 0.0000000000000000e+00  2.5068027579605578e-04 -9.9640243636590364e-01 0.0000000000000000e+00  -2.5551666660233105e-03 -6.0096061114233035e-01 0.0000000000000000e+00  4.3154777856584461e-03 -1.7459068111439457e-01 0.0000000000000000e+00  -8.6301752577126745e-04 -6.1476834105425415e-01 0.0000000000000000e+00  5.8102694036038516e-04 -9.6021331742728466e-01 0.0000000000000000e+00  -2.5827673399567985e-03 -8.4773631886684175e-01 0.0000000000000000e+00  -2.3389624734493353e-03 -8.1505230644252458e-01 0.0000000000000000e+00  7.6147014263949764e-04 -7.7977477107806192e-01 0.0000000000000000e+00  -1.2562790188197503e-03 -8.3666603697662856e-01 0.0000000000000000e+00  1.4070865413642886e-03 -9.0348806881799937e-01 0.0000000000000000e+00  -2.4243276910858591e-03 -8.4195913389717514e-01 0.0000000000000000e+00  3.7791675982311035e-03 -7.7545181240466321e-01 0.0000000000000000e+00  -1.8096961523707995e-03 -8.5144444369316186e-01 0.0000000000000000e+00  -1.2299965779842825e-03 -9.2678750060889104e-01 0.0000000000000000e+00  2.0515000656629034e-04 -9.9912673804018359e-01 0.0000000000000000e+00  6.0956571643944191e-04 -9.8215476653681077e-01 0.0000000000000000e+00  3.5878645718867563e-04 -9.8178027507256160e-01 0.0000000000000000e+00  -2.3710272434317448e-03 -8.5728187868869821e-01 0.0000000000000000e+00  -2.5831180797459656e-03 -5.8101814614927427e-01 0.0000000000000000e+00  1.7605601443526631e-04 -9.9810736599953565e-01 0.0000000000000000e+00  1.5749241680612647e-04 -9.5803947137823764e-01 0.0000000000000000e+00  -1.9449047023637478e-03 -8.9843303465132851e-01 0.0000000000000000e+00  -1.5013923319733835e-03 -9.6431107711547204e-01 0.0000000000000000e+00  -5.0356128799872168e-04 -9.8490945727199419e-01 0.0000000000000000e+00  2.0564328431958434e-03 -9.0308258042740697e-01 0.0000000000000000e+00  7.4512430217571479e-04 -8.9364401322859077e-01 0.0000000000000000e+00  -3.5885949581291321e-03 -7.6826755174639882e-01 0.0000000000000000e+00  3.6390595871189646e-03 -3.9052075705712314e-01 0.0000000000000000e+00  5.7405742686631456e-03 -3.1351887424369096e-01 0.0000000000000000e+00  4.2648406733101774e-03 -5.7464412038733736e-01 0.0000000000000000e+00  -1.6126655120407563e-04 -9.9253511260607485e-01 0.0000000000000000e+00  6.2407471440889539e-04 -9.9329270862434549e-01 0.0000000000000000e+00  7.2307225754880688e-05 -7.5524931714202492e-01 0.0000000000000000e+00  -2.6281921306516281e-03 -4.2691183520251058e-01 0.0000000000000000e+00  -4.1014651099671728e-04 -4.7295215697017912e-01 0.0000000000000000e+00  -1.5359562060642817e-03 -7.3134705853280746e-01 0.0000000000000000e+00  2.6715485778265879e-03 -6.4181594258622710e-01 0.0000000000000000e+00  1.9219524150930201e-03 -6.7942402815912983e-01 0.0000000000000000e+00  1.0146848957031107e-03 -7.8503538380093285e-01 0.0000000000000000e+00  -5.0472971114385451e-04 -9.5112485579007144e-01 0.0000000000000000e+00  1.6128180482244403e-06 -9.9995598501373895e-01 0.0000000000000000e+00  1.2619454209646941e-03 -9.4270203146056264e-01 0.0000000000000000e+00  3.6947551063403750e-03 -6.6271288712403920e-01 0.0000000000000000e+00  -2.0380736799290311e-03 -9.4998396452117140e-01 0.0000000000000000e+00  9.4754569759009089e-04 -9.7095320322084833e-01 0.0000000000000000e+00  2.3937555778629147e-03 -8.0418406475161397e-01 0.0000000000000000e+00  -2.6671232300490288e-03 -7.0055085772514891e-01 0.0000000000000000e+00  2.2390880830794879e-03 -9.3661368918119159e-01 0.0000000000000000e+00  3.4799026750402806e-03 -4.8833141935577418e-01 0.0000000000000000e+00  -8.1408878808497914e-05 -9.9976151092967924e-01 0.0000000000000000e+00  2.4149730886074972e-05 -9.9861141555782451e-01 0.0000000000000000e+00  1.2769559024463639e-03 -6.6404929914939870e-01 0.0000000000000000e+00  -3.7005496082671008e-03 -4.8704181027250770e-01 0.0000000000000000e+00  -1.0665817752314455e-03 -9.6461736967032774e-01 0.0000000000000000e+00  -1.5018000127084430e-03 -7.9825417517736641e-01 0.0000000000000000e+00  4.2055111414076030e-03 -7.3106061341314310e-01 0.0000000000000000e+00  2.3238589506818785e-03 -7.0125814787849861e-01 0.0000000000000000e+00  1.1829805949530869e-03 -9.4310803106591679e-01 0.0000000000000000e+00  1.9257846962600633e-03 -9.3066030111570730e-01 0.0000000000000000e+00  3.2624081658080006e-03 -3.7878055077157435e-01 0.0000000000000000e+00  8.9979707037914167e-04 -8.8978283127656688e-01 0.0000000000000000e+00  2.6878986392391280e-03 -6.5822512588504389e-01 0.0000000000000000e+00  -4.3725960181991985e-03 -4.2090609265576318e-01 0.0000000000000000e+00  2.6967731377057075e-03 -5.9460593494582237e-01 0.0000000000000000e+00  4.3973694516430406e-03 -4.2771860057678163e-01 0.0000000000000000e+00  -4.1330429631029064e-03 -5.0134939744347418e-01 0.0000000000000000e+00  2.0300729701820674e-04 -9.9716240820343893e-01 0.0000000000000000e+00  -8.3319542235976707e-05 -1.0000116433644466e+00 0.0000000000000000e+00  -3.1627057497907174e-04 -9.2903850567054691e-01 0.0000000000000000e+00  -2.1410630863782920e-04 -9.9905194549193177e-01 0.0000000000000000e+00  -3.5223011595968412e-03 -7.4931158915606688e-01 0.0000000000000000e+00  -1.5474056445612394e-03 -8.8322388994291168e-01 0.0000000000000000e+00  8.8919145245358600e-04 -8.0872786339102398e-01 0.0000000000000000e+00  2.7371643519827349e-04 -2.8260889605103517e-01 0.0000000000000000e+00  3.0662289841057455e-03 -3.1390086708461390e-01 0.0000000000000000e+00  -1.0385944853171791e-03 -9.8503164154422174e-01 0.0000000000000000e+00  2.1925620379654731e-03 -7.1910981540222252e-01 0.0000000000000000e+00  3.1114448007636408e-03 -8.5289321549336239e-01 0.0000000000000000e+00  7.5507659168790042e-04 -9.1692182601852235e-01 0.0000000000000000e+00  2.9610888081178233e-03 -7.9116171277375469e-01 0.0000000000000000e+00  2.4427746964287289e-03 -6.4086011067155446e-01 0.0000000000000000e+00  -7.1950104764628015e-04 -9.2860740922748675e-01 0.0000000000000000e+00  -7.5769859580310239e-04 -9.7559483496223898e-01 0.0000000000000000e+00  -1.1897941331313611e-03 -9.8083291774130510e-01 0.0000000000000000e+00  -1.5364579949574964e-03 -9.5681504268749829e-01 0.0000000000000000e+00  3.2620353412660119e-03 -8.0911797462466362e-01 0.0000000000000000e+00  -2.1173288337508200e-03 -8.6969607204675359e-01 0.0000000000000000e+00  -2.7279370842439032e-03 -8.7218558829811632e-01 0.0000000000000000e+00  3.5657726299369156e-04 -8.0970390058016140e-01 0.0000000000000000e+00  -2.1580885228398294e-03 -5.2623334109568454e-01 0.0000000000000000e+00  -6.7096866791160892e-04 -5.2044260650862040e-01 0.0000000000000000e+00  -2.3516493669791805e-03 -6.1145954612647868e-01 0.0000000000000000e+00  2.5025235376657240e-03 -3.3155314164161359e-01 0.0000000000000000e+00  3.8798029452885019e-03 -4.1967166095660613e-01 0.0000000000000000e+00  1.3695545191078073e-04 -9.9136041946194386e-01 0.0000000000000000e+00  4.8859774754798670e-03 -6.6747396850183716e-02 0.0000000000000000e+00  -3.2192270659413041e-04 -6.7559804579577720e-02 0.0000000000000000e+00  1.3081300281136965e-04 -9.9973191706183473e-01 0.0000000000000000e+00  -5.2780075145071326e-03 -5.5662631879063584e-01 0.0000000000000000e+00  1.1755517449863195e-03 -5.5915459898229858e-01 0.0000000000000000e+00  -4.7003071931704804e-03 -5.9825406832322159e-01 0.0000000000000000e+00  -3.0989604476741039e-03 -7.1915258569910567e-01 0.0000000000000000e+00  -1.6096262831320624e-03 -9.3051116318488913e-01 0.0000000000000000e+00  2.7796266822233129e-04 -8.8742132119121608e-01 0.0000000000000000e+00  -6.0723495408177008e-04 -9.8996306260985811e-01 0.0000000000000000e+00  5.3599477366732262e-04 -9.9227336022784096e-01 0.0000000000000000e+00  -5.9627478740381656e-04 -9.6480164470328478e-01 0.0000000000000000e+00  -2.0789623516311584e-03 -9.2508942146746631e-01 0.0000000000000000e+00  -1.9072732390315600e-04 -9.9998406363522885e-01 0.0000000000000000e+00  1.7472598255713345e-04 -9.9257946464869362e-01 0.0000000000000000e+00  -1.4784710597727235e-03 -9.6498578710409377e-01 0.0000000000000000e+00  -5.6405918158397572e-04 -9.8981510408260998e-01 0.0000000000000000e+00  2.2812448186532077e-03 -7.3118177525743921e-01 0.0000000000000000e+00  -1.8849151633880679e-03 -9.2433889926961699e-01 0.0000000000000000e+00  5.1964179892729223e-03 -5.3687255511310905e-01 0.0000000000000000e+00  2.9291583347764300e-03 -1.9445652584827969e-01 0.0000000000000000e+00  2.4379106596762864e-03 -1.9343962816889498e-01 0.0000000000000000e+00  -2.2946903630318176e-04 -5.4269031936156298e-01 0.0000000000000000e+00  -1.6535463081928060e-03 -6.3514054849130219e-01 0.0000000000000000e+00  2.5295050000981867e-03 -7.3344063344391686e-01 0.0000000000000000e+00  6.4646487926700580e-04 -9.9373950561800983e-01 0.0000000000000000e+00  -4.9465344232431613e-04 -9.7271768443674966e-01 0.0000000000000000e+00  4.2149044041561723e-04 -9.9532072830165208e-01 0.0000000000000000e+00  -3.0521156695273444e-04 -6.2328576820702919e-01 0.0000000000000000e+00  -8.9206117588992717e-04 -9.5184377177007307e-01 0.0000000000000000e+00  1.0752751070803868e-03 -9.4784609503268502e-01 0.0000000000000000e+00  3.6491434298394076e-03 -8.0999485424747042e-01 0.0000000000000000e+00  -3.0236457458744370e-03 -7.2430501806943903e-01 0.0000000000000000e+00  -5.2655491860159609e-04 -8.0322408255814581e-01 0.0000000000000000e+00  1.9066262616666274e-03 -9.2092798367907169e-01 0.0000000000000000e+00  4.4592040253537690e-03 -2.1165564751728960e-01 0.0000000000000000e+00  -5.2678249192229173e-03 -2.9740917632903047e-01 0.0000000000000000e+00  5.0587467528456775e-04 -9.8010182516353017e-01 0.0000000000000000e+00  1.2212943398201559e-03 -9.7726533388179437e-01 0.0000000000000000e+00  -9.7518598366860831e-04 -8.9341742241510236e-01 0.0000000000000000e+00  5.7538127164846742e-04 -9.7722204866030715e-01 0.0000000000000000e+00  -3.2852259832849562e-04 -9.9497249811951816e-01 0.0000000000000000e+00  2.9822914598321981e-03 -4.5054517661177002e-01 0.0000000000000000e+00  2.6002949340329373e-03 -8.5719400862881556e-01 0.0000000000000000e+00  3.8615290211147513e-03 -8.9203678242127160e-01 0.0000000000000000e+00  -4.4135572370501003e-04 -7.3787581072770758e-01 0.0000000000000000e+00  -4.9860380332833465e-04 -9.9353766710816593e-01 0.0000000000000000e+00  1.1216685454276745e-03 -8.7203116607495545e-01 0.0000000000000000e+00  1.4252541507504910e-03 -9.2716250517263510e-01 0.0000000000000000e+00  1.2663197008603855e-03 -8.8835971969384431e-01 0.0000000000000000e+00  1.0839612067066184e-03 -9.2984933369666434e-01 0.0000000000000000e+00  -2.6412957177349150e-03 -8.5184220086381468e-01 0.0000000000000000e+00  2.5686458326884543e-04 -9.9919167437522038e-01 0.0000000000000000e+00  -3.2106596313941083e-04 -9.9319852693486710e-01 0.0000000000000000e+00  1.4212986040505471e-03 -6.9615663152585205e-01 0.0000000000000000e+00  3.6787642907075702e-03 -4.7297705458680139e-01 0.0000000000000000e+00  2.4325449968742863e-04 -8.7648417174753335e-01 0.0000000000000000e+00  2.2503160695316327e-03 -8.0176540557122000e-01 0.0000000000000000e+00  -6.4953387307140065e-04 -9.9003963341428847e-01 0.0000000000000000e+00  1.0138495224628619e-03 -9.7007936771866754e-01 0.0000000000000000e+00  -2.4487334063244548e-03 -9.2161017310960247e-01 0.0000000000000000e+00  -7.6127160806149785e-04 -9.8269084422224207e-01 0.0000000000000000e+00  8.4015319994601434e-04 -9.7259381737236128e-01 0.0000000000000000e+00  1.7405128681831639e-03 -4.5899837331512994e-01 0.0000000000000000e+00  1.6626068119580117e-03 -7.6311758305341582e-01 0.0000000000000000e+00  4.4765080956912229e-03 -8.0103860028375795e-01 0.0000000000000000e+00  3.3756037913576509e-04 -9.9689498153304545e-01 0.0000000000000000e+00  6.4871234689467538e-04 -9.6607039150323493e-01 0.0000000000000000e+00  -9.3257476955255214e-04 -9.6452530623197497e-01 0.0000000000000000e+00  2.2839776953253871e-03 -7.1262016396535710e-01 0.0000000000000000e+00  1.0894549710050438e-03 -8.8554036805902159e-01 0.0000000000000000e+00  -3.4996624855237191e-03 -7.9183351121213585e-01 0.0000000000000000e+00  -2.0821060185207685e-03 -8.1989602962754160e-01 0.0000000000000000e+00  -6.5038438637587894e-04 -9.8137872043141439e-01 0.0000000000000000e+00  1.4198431230089681e-03 -7.6337983092932715e-01 0.0000000000000000e+00  1.2770900833513066e-03 -9.6687992021894009e-01 0.0000000000000000e+00  2.1417048961114293e-04 -9.8736988297843609e-01 0.0000000000000000e+00  8.0938134532915207e-05 -9.9390331387139030e-01 0.0000000000000000e+00  2.2755187996982285e-03 -8.6465821891623817e-01 0.0000000000000000e+00  -1.2820570360203565e-03 -5.1503386968459852e-01 0.0000000000000000e+00  -5.6850602631841347e-05 -7.6642706474827060e-01 0.0000000000000000e+00  2.2929578462973499e-03 -8.6530402042994004e-01 0.0000000000000000e+00  2.0555664243508687e-04 -3.1432073052606230e-01 0.0000000000000000e+00  -5.6694713671545105e-03 -1.8805137215970147e-01 0.0000000000000000e+00  -2.1420126877696594e-03 -8.5143171046339572e-01 0.0000000000000000e+00  1.0691316042941157e-03 -9.3651877940101469e-01 0.0000000000000000e+00  -1.4117564977328412e-04 -8.8751893289367589e-01 0.0000000000000000e+00  -6.9103003264184282e-04 -9.0881113067231545e-01 0.0000000000000000e+00  3.5222179460270842e-03 -4.0360547202329794e-01 0.0000000000000000e+00  9.3572624659921111e-05 -9.9981380020397692e-01 0.0000000000000000e+00  7.7507135651594394e-04 -6.4162341716834004e-01 0.0000000000000000e+00  -3.1972521517034114e-03 -5.3222729767725219e-01 0.0000000000000000e+00  -3.3534859124670358e-03 -5.9447751563036011e-01 0.0000000000000000e+00  -2.3065210607689374e-03 -6.1328485183132186e-01 0.0000000000000000e+00  -4.8523890058634056e-03 -6.6238563171665632e-01 0.0000000000000000e+00  1.4599844686482219e-03 -8.6791478854973214e-01 0.0000000000000000e+00  -2.3348721657323601e-03 -8.7799719282008359e-01 0.0000000000000000e+00  -5.4645071384840094e-04 -9.3294418232560761e-01 0.0000000000000000e+00  -7.1593127618568841e-04 -9.7057672264171069e-01 0.0000000000000000e+00  1.0265132980191993e-03 -2.6330373895068959e-01 0.0000000000000000e+00  1.7133937568769020e-03 -3.6006249468597251e-01 0.0000000000000000e+00  -2.2293319692371777e-03 -3.2090712803303528e-01 0.0000000000000000e+00  7.1967634649505730e-04 -9.5177166876354169e-01 0.0000000000000000e+00  -1.7773310427024111e-04 -9.6329004845892752e-01 0.0000000000000000e+00  -2.8577496791188928e-03 -7.9498820144978599e-01 0.0000000000000000e+00  3.8824744418647361e-