<?xml version="1.0"?>
<VTKFile type="UnstructuredGrid"  version="0.1"  >
<UnstructuredGrid>
<Piece  NumberOfPoints="1385" NumberOfCells="2640">
<Points>
<DataArray  type="Float64"  NumberOfComponents="3"  format="ascii">0 0 0  1 0 0  1 1 0  0 1 0  0.5 0 0  1 0.5 0  0.5 1 0  0 0.5 0  0.5 0.5 0  0 0.25 0  0.25 0 0  0.25 1 0  0 0.75 0  1 0.25 0  0.75 0 0  1 0.75 0  0.75 1 0  0.7083333333333333 0.2916666666666667 0  0.2916666666666666 0.7083333333333334 0  0.375 0.25 0  0.75 0.625 0  0.2569444444444444 0.4652777777777778 0  0.5366379310344828 0.7535919540229885 0  0.1875 0.1875 0  0.8125 0.8125 0  0.869047619047619 0.375 0  0.1450441919191919 0.6052714646464646 0  0.375 0.8690476190476191 0  0.5526960784313725 0.1825980392156862 0  0.8385416666666666 0.1614583333333334 0  0.1614583333333333 0.8385416666666667 0  0.6736111111111112 0.4652777777777778 0  0.1367521367521368 0.3477564102564102 0  0.6570970491253563 0.8648656830417855 0  0.5102479397556124 0.3386260301221938 0  0.3654513888888889 0.5737847222222222 0  0.6929750044954185 0.1362784921584263 0  0.388576102743835 0.411911725237599 0  0.6091269841269842 0.5942460317460317 0  0.875 0.6875 0  0.427278890279516 0.119889445139758 0  0.8544456845238095 0.5213913690476191 0  0.125 0 0  0 0.125 0  1 0.875 0  0.875 1 0  0.1280008648150532 0.4769292340226777 0  0.2695382451711197 0.3321750950221553 0  0.7031567235715964 0.7447810921428012 0  0.625 0 0  0.375 0 0  0.125 1 0  0.875 0 0  0 0.375 0  0 0.625 0  1 0.375 0  0.375 1 0  1 0.125 0  0 0.875 0  0.625 1 0  1 0.625 0  0.2979288363930608 0.1201429454643536 0  0.410919540229885 0.7484605911330049 0  0.5325041980395562 0.878905151526474 0  0.4831670727569156 0.6331060043826487 0  0.1735997378973042 0.7204747378973043 0  0.2534919507575758 0.5772372159090909 0  0.2633928571428572 0.8876488095238095 0  0.8199404761904761 0.2730654761904762 0  0.75830270586982 0.3919383189517417 0  0.5750282248382511 0.4237522353023667 0  0.6008360210023379 0.2794828358598495 0  0.08163442644334186 0.6821295860397322 0  0.08333333333333333 0.1875 0  0.2028380815996574 0.08844602719988583 0  0.2766521142611967 0.2325436572164097 0  0.90625 0.78125 0  0.890625 0.890625 0  0.7545696325008384 0.8973565441669461 0  0.5625 0.08086590340834317 0  0.09077380952380953 0.09077380952380952 0  0.4610923478694773 0.209034015149656 0  0.7542527598351648 0.5248380520595106 0  0.6459235536037465 0.3619913988405765 0  0.7560381768882634 0.20506142233852 0  0.07073252688172042 0.8125 0  0.0924753097241701 0.9078102849914793 0  0.9292674731182795 0.1875 0  0.9075246902758297 0.09218971500852073 0  0.8125 0.07073252688172045 0  0.2400955776842301 0.7869705776842302 0  0.9121050213379069 0.2781978201831695 0  0.7916878157143976 0.7239689078571988 0  0.9345238095238094 0.4375 0  0.4375 0.9345238095238095 0  0.3725616989755203 0.6651895248862173 0  0.06536271996350887 0.5625 0  0.9348362560379583 0.5625 0  0.456646798987055 0.8277247094351965 0  0.1875 0.9355758238725954 0  0.6169761231634859 0.6939779188977889 0  0.6226854751147515 0.7827911461419014 0  0.3305695598137626 0.7901697871282585 0  0.5865305325818898 0.5101085479043448 0  0.6622701297028378 0.2177663989757395 0  0.1354166666666667 0.2591702279202279 0  0 0.3125 0  0.2094429575680048 0.3936361846162499 0  0.836666296419157 0.607917407161686 0  0.6875 1 0  0.214261555450504 0.6492551722020035 0  0 0.4375 0  0.07731537126068377 0.40625 0  0.3427725432967068 0.4879566233699599 0  0.3550792513951871 0.3331953632609953 0  0.4462473953896857 0.2887834789342508 0  0.4747801464819794 0.417386052030127 0  0.8229836475148948 0.4443292349237342 0  0.7322605135514757 0.8199240278289671 0  0.6756431877205955 0.5468989748126787 0  0.1968419507215863 0.5194573482612496 0  0.3285590277777778 0.9345238095238095 0  0.8125 1 0  0.4198917601920009 0.5134893045331258 0  0.5232405503206691 0.2595791787880157 0  1 0.9375 0  0.1987510870015086 0.3025185951894431 0  0.5625 1 0  0.6005390654136388 0.9228110509230952 0  0.6411254848194414 0.07704872765442942 0  0.3357233162523242 0.1855113224530532 0  0.6730653396610877 0.6393887462324165 0  0.310966987234063 0.6240019765311626 0  0.7368737836204349 0.07457755202327881 0  0.6192316414418171 0.1485238406378594 0  0.5432429670607106 0.678552703844006 0  0.4754371679695679 0.7103946803120881 0  0.07501324890749672 0.3043839897335739 0  0.5358146975860403 0.5688321463205916 0  0.3115271739500156 0.3982137365971444 0  0.3625191397122174 0.0767854603650549 0  0.5024029442563831 0.1264128223758444 0  0.4375 0 0  0.4699946908887376 0.06379961173775725 0  0.9375 0.71875 0  0.9272105898044465 0.635671179608893 0  0.9375 1 0  0.6690971819568612 0.9331530898202766 0  0.1073454944778885 0.7499206387638554 0  0.8699082999280406 0.2232403652524313 0  0.5773118091863964 0.3548027349159383 0  0.1354166666666667 0.1428571428571428 0  0.3125 0 0  0.8241684193077341 0.9257452995055244 0  0.4352314948354036 0.3586940847489378 0  0.4351301473778832 0.5819726043539077 0  0.8073232928518163 0.3419398170341962 0  0.7775949246947366 0.1298519409204575 0  0.6875 0 0  0.7413513991851041 0.457933324954483 0  0.939453125 0.841796875 0  0.5630355154606987 0.8171875156478349 0  0.9345238095238095 0.3461466592368577 0  0.9375 0 0  1 0.0625 0  0.0625 1 0  0 0.9375 0  0.06552178593177167 0.4969053669623468 0  0.1424866619031703 0.4130277709291224 0  0.1275287182444726 0.5422946908002588 0  0.2637686595586339 0.06413888464529549 0  0.2524263535491086 0.1697437503243817 0  0.7367218397988525 0.6888573970660841 0  0.0625 0 0  0 0.0625 0  0.8463594539285995 0.7578283617857982 0  0.3128751192101563 0.2851997374369947 0  0.4015281788351144 0.1806421385113692 0  0.1910251795116588 0.4553332197174453 0  0.287797471442006 0.5222621440543902 0  0.3962628745986055 0.8097380085535307 0  0.3505895299554843 0.7304878890838692 0  0.5019151500495276 0.9356042615328103 0  0.9374389419410134 0.4999931039076005 0  0.3125 1 0  0.1875 1 0  1 0.5625 0  0.4375 1 0  1 0.3125 0  1 0.4375 0  0.8125 0 0  1 0.1875 0  0.5625 0 0  0.1875 0 0  0 0.1875 0  0 0.5625 0  0 0.6875 0  0 0.8125 0  1 0.6875 0  1 0.8125 0  0.8021696218581627 0.6612893947866073 0  0.06154922295426143 0.6239401126946708 0  0.9359375 0.9359375 0  0.4666158024849896 0.7691515918155014 0  0.2318201265217025 0.7064974250277525 0  0.1565954253579966 0.6635489312486841 0  0.1598132503680848 0.7787147500325552 0  0.3146529991605639 0.8510876378205265 0  0.1461873209418733 0.05982804528877814 0  0.06109554988524315 0.2446551776247686 0  0.8054950308560754 0.5564226538848541 0  0.470541749491976 0.8853316336952531 0  0.6948472567465137 0.4042308563372457 0  0.8802828472348889 0.4658893256343853 0  0.6788075634946739 0.7974194205806069 0  0.2155048659603867 0.2428201584940968 0  0.8131223143423806 0.2132171049028394 0  0.4330798005432235 0.6671274900735726 0  0.6015279126162613 0.2187368078743274 0  0.8061636571464289 0.8703766630361714 0  0.7008230445061776 0.3478568388444072 0  0.8638466246958771 0.3147095987735538 0  0.204801534004265 0.8789209409594009 0  0.2449006736431132 0.9424182882803838 0  0.7611268409371427 0.2643056884799992 0  0.7552800864046191 0.7678006649959446 0  0.5983639638906616 0.864113435029236 0  0.1956559506814437 0.577281203577426 0  0.3527670268164207 0.1320469097565204 0  0.7530364577483248 0.3262386077083089 0  0.4535919187979363 0.4690107087451527 0  0.8824869791666666 0.8336588541666666 0  0.8814453125 0.9451171875 0  0.5582987942628019 0.622421666543858 0  0.6817532446064828 0.6939001801354731 0  0.3830295138888889 0.9450968952922078 0  0.4140603937012541 0.05211333372716105 0  0.5535864501303013 0.3060591985391672 0  0.6560130086346878 0.2729726562211558 0  0.890203140221684 0.5948314305427268 0  0.7043857725999024 0.593980890020804 0  0.5105843922695152 0.8016828014338627 0  0.05365910753708378 0.7315110031682004 0  0.616904573672261 0.4621186633436136 0  0.5338511646455415 0.387875898899613 0  0.5231769258947843 0.4477682463140762 0  0.650302973237622 0.7370722302085519 0  0.3927483139621257 0.4662414504529014 0  0.8034595960585199 0.4972538342758211 0  0.7738337841682438 0.9496376207663251 0  0.7193737507158268 0.954685447650112 0  0.482525916480686 0.5528257169991676 0  0.2533501157346781 0.2809495420003238 0  0.3118487924482243 0.5702930126570319 0  0.6257598847669529 0.4104163315430518 0  0.1354166666666667 0.1955605158730158 0  0.04166666666666666 0.15625 0  0.3956448985530264 0.6174149462065157 0  0.8102897701818546 0.3938784238208349 0  0.2641154190013625 0.8344469561943118 0  0.642852220770013 0.5068794586563659 0  0.05271458179508221 0.355846947336007 0  0.7021551360070266 0.8921457280225779 0  0.5692125776683765 0.1328512638850284 0  0.5206162811937602 0.04865158770992991 0  0.6001838442201555 0.04540556991297563 0  0.2597716608242787 0.4118346398477178 0  0.4040584599473195 0.3179589136784675 0  0.1480337679295207 0.8941560631483065 0  0.1344356707112281 0.9466251177415842 0  0.7114696411829317 0.4983917389078826 0  0.7585704698442475 0.5751926345944629 0  0.2189131956390871 0.04022068508159698 0  0.2476935455192043 0.1123642267635843 0  0.185995005654517 0.1365524537205238 0  0.6223414373308711 0.643380839165121 0  0.5732602596637543 0.7190051747306219 0  0.268358222364537 0.6586246524467934 0  0.3265879848129173 0.2369791782191225 0  0.1267095595787346 0.7034787238999181 0  0.1115202922226038 0.6421997933884982 0  0.3128688392940203 0.07260997451790079 0  0.550724900485678 0.9253360991633187 0  0.7142608810459105 0.2384904702214873 0  0.7045869185243887 0.1871826897887429 0  0.890625 0.734375 0  0.953125 0.765625 0  0.2111812642821677 0.8286209446459138 0  0.9590293078204457 0.09375 0  0.953431269039847 0.1435719386408004 0  0.04097069217955424 0.90625 0  0.04656873096015299 0.8564280613591996 0  0.1078743037981226 0.8541621766048062 0  0.8921256962018773 0.1458378233951939 0  0.8521576979194619 0.1084496634207678 0  0.8655663982740958 0.05464346096571447 0  0.04005659640905543 0.09375 0  0.1001448316533417 0.04246776244228261 
[...]
<PointData  Vectors="f_8394-0-0"> 
<DataArray  type="Float64"  Name="f_8394-0-0"  NumberOfComponents="3" format="ascii">-1.4011993989587794e-02 7.1396844448396966e-03 0.0000000000000000e+00  -8.4370970259930489e-01 1.4915564220350230e-03 0.0000000000000000e+00  -9.1271140894522751e-01 2.5560939529034664e-03 0.0000000000000000e+00  -8.3795795726207145e-01 -1.3406098759813356e-05 0.0000000000000000e+00  -4.8628181907331031e-01 2.9569899390507470e-03 0.0000000000000000e+00  -9.9648432685780697e-01 -5.7039435871313049e-05 0.0000000000000000e+00  -9.9783708581105768e-01 1.7321411402015959e-04 0.0000000000000000e+00  -4.8144418939572509e-01 5.5847186497747225e-03 0.0000000000000000e+00  -8.3844033882962932e-01 -1.7149740848021455e-03 0.0000000000000000e+00  -2.5434880695004453e-01 2.7904569478315600e-03 0.0000000000000000e+00  -2.5493881690529996e-01 3.6952494237493822e-03 0.0000000000000000e+00  -9.4673498688955149e-01 -1.0076158048963890e-03 0.0000000000000000e+00  -6.7439708446458380e-01 4.8714084451167983e-04 0.0000000000000000e+00  -9.4664944887995683e-01 -1.7279116085908153e-03 0.0000000000000000e+00  -6.8411913545989689e-01 -1.0235679880043346e-03 0.0000000000000000e+00  -9.8396401633945008e-01 1.0037975602820715e-03 0.0000000000000000e+00  -9.8542787273514598e-01 6.5705894225032146e-04 0.0000000000000000e+00  -8.4629828020439180e-01 1.4201292952141925e-03 0.0000000000000000e+00  -8.4399421113746986e-01 2.8360232096794058e-03 0.0000000000000000e+00  -5.8097395215135794e-01 -2.4653090280923329e-03 0.0000000000000000e+00  -9.7930038149514032e-01 -9.3547774553270902e-04 0.0000000000000000e+00  -6.6335183131699815e-01 -1.0485613240786007e-03 0.0000000000000000e+00  -9.6355205748626238e-01 5.7766461637567823e-04 0.0000000000000000e+00  -3.5857952144559085e-01 -4.1358093663318996e-03 0.0000000000000000e+00  -9.9865693063109329e-01 2.0955090298713230e-04 0.0000000000000000e+00  -9.4970836355903099e-01 1.0057271505696241e-03 0.0000000000000000e+00  -6.7605504064465594e-01 -1.6247840834395233e-03 0.0000000000000000e+00  -9.5074847692976272e-01 4.7757584320930885e-04 0.0000000000000000e+00  -6.7737488028674997e-01 3.1683252592114020e-03 0.0000000000000000e+00  -8.3616260034821011e-01 -1.5291530635407335e-03 0.0000000000000000e+00  -8.3825145901744313e-01 -2.4294126185669396e-03 0.0000000000000000e+00  -9.1263296705901920e-01 7.3019514578664957e-04 0.0000000000000000e+00  -4.6107235851520922e-01 -1.0862628653844908e-03 0.0000000000000000e+00  -9.9908609115346925e-01 2.0077696820841595e-04 0.0000000000000000e+00  -7.4573915714042016e-01 -3.6167584137768993e-03 0.0000000000000000e+00  -8.1359379192672387e-01 1.6260966850564773e-03 0.0000000000000000e+00  -7.3099994795768142e-01 -2.5558418410388528e-03 0.0000000000000000e+00  -7.1935851490485991e-01 -1.7599702928449840e-03 0.0000000000000000e+00  -9.3143319487334930e-01 -8.5306048342459473e-04 0.0000000000000000e+00  -9.9966377050249611e-01 -5.2057170129959918e-05 0.0000000000000000e+00  -5.2681148384728260e-01 4.1084055341001902e-03 0.0000000000000000e+00  -9.8273055738204440e-01 3.3146414158943815e-04 0.0000000000000000e+00  -1.3312686462499179e-01 4.5690043802749936e-03 0.0000000000000000e+00  -1.1457676511195929e-01 -7.8880300242294837e-04 0.0000000000000000e+00  -9.5405945288806737e-01 1.8181060645416913e-03 0.0000000000000000e+00  -9.5530286738735093e-01 1.1296732895406114e-03 0.0000000000000000e+00  -5.7679513888035772e-01 2.1161453857260204e-03 0.0000000000000000e+00  -5.7035372474374135e-01 -4.7379247556171289e-03 0.0000000000000000e+00  -9.9133679648922790e-01 -4.8632274528748187e-04 0.0000000000000000e+00  -5.9141762182654145e-01 5.7237707481998018e-04 0.0000000000000000e+00  -3.7291324693801742e-01 5.7908644474621296e-03 0.0000000000000000e+00  -8.9926073540658202e-01 -2.2839904774720754e-03 0.0000000000000000e+00  -7.7263327827528072e-01 3.3184763642902793e-03 0.0000000000000000e+00  -3.7278167020834013e-01 5.4657214371548607e-03 0.0000000000000000e+00  -5.9065731766719554e-01 2.3682819959048862e-03 0.0000000000000000e+00  -9.7970907089311043e-01 -1.2021386123325928e-03 0.0000000000000000e+00  -9.7939480433205428e-01 1.8790496988176482e-04 0.0000000000000000e+00  -9.0039057104911380e-01 -2.5115783017619076e-03 0.0000000000000000e+00  -7.6873189937905428e-01 2.6863418435363606e-03 0.0000000000000000e+00  -9.9893237718048311e-01 -5.5589851407826686e-05 0.0000000000000000e+00  -9.9816240521098532e-01 2.9449956439170366e-04 0.0000000000000000e+00  -4.0068511634770387e-01 5.2404685209062329e-03 0.0000000000000000e+00  -9.1467502865701400e-01 -1.3235619627255391e-03 0.0000000000000000e+00  -9.8670642275563303e-01 -9.9212271692161735e-04 0.0000000000000000e+00  -8.9497615636558936e-01 -2.1112116696344607e-03 0.0000000000000000e+00  -7.8505333541969224e-01 2.1679677386442497e-03 0.0000000000000000e+00  -7.4523812200973016e-01 4.7447563741859766e-03 0.0000000000000000e+00  -9.1327621771116319e-01 -2.2410535476366095e-03 0.0000000000000000e+00  -8.8307533028256957e-01 -1.3447805448073558e-03 0.0000000000000000e+00  -9.1305875986332707e-01 1.5640173068815488e-03 0.0000000000000000e+00  -8.4108861342459729e-01 2.5161402123610316e-03 0.0000000000000000e+00  -7.7648190594055155e-01 8.9035404734061352e-04 0.0000000000000000e+00  -6.9207355364839707e-01 -3.5027653078495424e-03 0.0000000000000000e+00  -2.5971612941169175e-01 -5.0459881188792410e-03 0.0000000000000000e+00  -2.7857819804929207e-01 -4.0927525694446909e-03 0.0000000000000000e+00  -4.9416330034779415e-01 3.6381891425735224e-03 0.0000000000000000e+00  -9.9419362711037140e-01 3.7945903431646499e-04 0.0000000000000000e+00  -9.7776872628119582e-01 7.3795943312279203e-04 0.0000000000000000e+00  -9.9711015134150427e-01 1.6294554123552629e-04 0.0000000000000000e+00  -5.9250675798741426e-01 -2.8269934988386369e-03 0.0000000000000000e+00  -1.9061256639770854e-01 3.6793159139568918e-03 0.0000000000000000e+00  -6.1488001992644037e-01 -1.9075025276085733e-03 0.0000000000000000e+00  -9.6029156661925130e-01 7.4299155478541046e-04 0.0000000000000000e+00  -8.4153667293481071e-01 -2.6679752410556645e-03 0.0000000000000000e+00  -8.2401045145787333e-01 -2.5531255034104139e-03 0.0000000000000000e+00  -7.7739843955092414e-01 -2.7138063581305660e-04 0.0000000000000000e+00  -8.4653069292060334e-01 -1.5633252768584545e-03 0.0000000000000000e+00  -9.0202779958404944e-01 1.5373140074005920e-03 0.0000000000000000e+00  -8.3543405174400176e-01 -2.1681030980684746e-03 0.0000000000000000e+00  -7.7687442610431934e-01 3.6727788842797482e-03 0.0000000000000000e+00  -8.5260310823813434e-01 -1.2412293763719995e-03 0.0000000000000000e+00  -9.2616975008454283e-01 -1.7169356204613517e-03 0.0000000000000000e+00  -9.9883215717331908e-01 1.3610764663563035e-04 0.0000000000000000e+00  -9.8148839834446200e-01 5.4947499400347100e-04 0.0000000000000000e+00  -9.8249006453910259e-01 3.1495172296777934e-04 0.0000000000000000e+00  -8.5926015536642120e-01 -1.8716925065049295e-03 0.0000000000000000e+00  -5.8157191293385779e-01 -3.0686659763603519e-03 0.0000000000000000e+00  -9.9754793661637409e-01 7.3903620026252725e-06 0.0000000000000000e+00  -9.6164541442604801e-01 3.4499441286106602e-04 0.0000000000000000e+00  -8.9889559646573391e-01 -2.2051423916943924e-03 0.0000000000000000e+00  -9.6554692538186249e-01 -1.0452550590221987e-03 0.0000000000000000e+00  -9.8444985634431292e-01 -5.7578025613620742e-04 0.0000000000000000e+00  -9.0443080004175369e-01 1.9277426990913504e-03 0.0000000000000000e+00  -8.9374729934087505e-01 1.1775953689897034e-03 0.0000000000000000e+00  -7.6647428740384704e-01 -3.2524976779235715e-03 0.0000000000000000e+00  -3.8709713957756781e-01 2.7558273672544653e-03 0.0000000000000000e+00  -3.1036579108070095e-01 5.8018546105881308e-03 0.0000000000000000e+00  -5.7133840604109809e-01 4.3301334521720081e-03 0.0000000000000000e+00  -9.9094506474376542e-01 -2.0371332403190667e-04 0.0000000000000000e+00  -9.9367908035104602e-01 6.0371079392351756e-04 0.0000000000000000e+00  -7.5518513476870985e-01 -3.2146806542723491e-04 0.0000000000000000e+00  -4.1626474584401191e-01 -2.9044917238799650e-03 0.0000000000000000e+00  -4.5990414147606851e-01 6.0544789758226747e-05 0.0000000000000000e+00  -7.3272795951749803e-01 -1.4682079724135377e-03 0.0000000000000000e+00  -6.3636967731358773e-01 3.4670169011722790e-03 0.0000000000000000e+00  -6.7664609241830032e-01 9.2716472345855117e-04 0.0000000000000000e+00  -7.8502175176763855e-01 1.7027979609590682e-03 0.0000000000000000e+00  -9.5092241228737140e-01 -9.1246967188063355e-04 0.0000000000000000e+00  -9.9996602074145946e-01 -2.4471167004269656e-05 0.0000000000000000e+00  -9.4117444702232933e-01 1.3004411854574682e-03 0.0000000000000000e+00  -6.5390422738993881e-01 4.7391396247157963e-03 0.0000000000000000e+00  -9.5226097203636673e-01 -2.0476350711914615e-03 0.0000000000000000e+00  -9.7340929217339789e-01 9.4979394790029037e-04 0.0000000000000000e+00  -8.1000633663103949e-01 3.0432926007939454e-03 0.0000000000000000e+00  -7.0029866182468004e-01 -1.8387020452545477e-03 0.0000000000000000e+00  -9.3350236601397607e-01 2.3102816245016422e-03 0.0000000000000000e+00  -4.8799907300071654e-01 3.4345327854911067e-03 0.0000000000000000e+00  -9.9997851058825082e-01 -4.4812897769253013e-05 0.0000000000000000e+00  -9.9944911628985977e-01 8.7355753071949316e-05 0.0000000000000000e+00  -6.6260712845334890e-01 1.8612744055909736e-03 0.0000000000000000e+00  -5.0503193829786941e-01 -6.3203446641195149e-03 0.0000000000000000e+00  -9.6785460447135863e-01 -1.1875313218080580e-03 0.0000000000000000e+00  -7.9878033494980283e-01 -1.2192687654816181e-03 0.0000000000000000e+00  -7.3073378104842157e-01 3.8025577338388072e-03 0.0000000000000000e+00  -7.0013780788936908e-01 9.8395686143376571e-04 0.0000000000000000e+00  -9.4323516587118961e-01 1.2093657392395207e-03 0.0000000000000000e+00  -9.3145268814779048e-01 1.8478518836919644e-03 0.0000000000000000e+00  -3.6644287621618732e-01 2.8667272258343646e-03 0.0000000000000000e+00  -8.9779214578129840e-01 6.5849999765910106e-04 0.0000000000000000e+00  -6.5864562639923219e-01 3.2758918827058281e-03 0.0000000000000000e+00  -4.1868270036848887e-01 -3.6440049112131390e-03 0.0000000000000000e+00  -5.9505967049638020e-01 3.2368728921970459e-03 0.0000000000000000e+00  -4.3211065682545746e-01 4.3960583153347943e-03 0.0000000000000000e+00  -5.0679751158752850e-01 -4.3275361585543848e-03 0.0000000000000000e+00  -9.9664993634612731e-01 2.2090550169678869e-04 0.0000000000000000e+00  -9.9956288372311941e-01 -5.4075244870332995e-05 0.0000000000000000e+00  -9.3616956078792835e-01 -1.2265923468398639e-04 0.0000000000000000e+00  -9.9920536899090340e-01 -2.0132505231257314e-04 0.0000000000000000e+00  -7.5259893977043735e-01 -2.6482069257015017e-03 0.0000000000000000e+00  -8.8688460155375359e-01 -1.4496385553916941e-03 0.0000000000000000e+00  -8.0992664027774253e-01 1.0501251564296789e-03 0.0000000000000000e+00  -2.7147203751451959e-01 -2.1875454073698453e-04 0.0000000000000000e+00  -3.1427711242727618e-01 2.8330870286180409e-03 0.0000000000000000e+00  -9.8205617778248233e-01 -8.5690357837669984e-04 0.0000000000000000e+00  -7.1970046957032707e-01 1.6473871692279096e-03 0.0000000000000000e+00  -8.5443344162305501e-01 2.7558608562687770e-03 0.0000000000000000e+00  -9.1657763113416146e-01 9.3551403201508343e-04 0.0000000000000000e+00  -7.9332067339066370e-01 3.1137098729024926e-03 0.0000000000000000e+00  -6.3996406643819626e-01 2.9486733784866229e-03 0.0000000000000000e+00  -9.2818396565022054e-01 -1.2845493334137092e-03 0.0000000000000000e+00  -9.7547933058705494e-01 -7.5412367927696344e-04 0.0000000000000000e+00  -9.8059278942184780e-01 -1.1962502406530628e-03 0.0000000000000000e+00  -9.5526817228453920e-01 -1.7658755155159911e-03 0.0000000000000000e+00  -8.1012938441193505e-01 3.2727480830352373e-03 0.0000000000000000e+00  -8.6953223092321186e-01 -2.1462509786114303e-03 0.0000000000000000e+00  -8.7149560206090748e-01 -2.8465236388787174e-03 0.0000000000000000e+00  -8.0046519734034904e-01 -3.3205773937669547e-04 0.0000000000000000e+00  -5.2737220246357341e-01 -1.4274603663026603e-03 0.0000000000000000e+00  -5.3229811856236509e-01 -1.0462749565617602e-03 0.0000000000000000e+00  -6.2648256612795417e-01 -3.1095300494688076e-03 0.0000000000000000e+00  -3.1690052073132235e-01 1.9789069327076185e-03 0.0000000000000000e+00  -4.1947302566812006e-01 3.4689147891442673e-03 0.0000000000000000e+00  -9.9116202692425048e-01 2.3729175003472935e-04 0.0000000000000000e+00  -7.1017081601486454e-02 5.2873493407158273e-03 0.0000000000000000e+00  -5.3853422384161714e-02 -1.5455424765699298e-03 0.0000000000000000e+00  -9.9946927616193970e-01 2.0300410382045886e-04 0.0000000000000000e+00  -5.5759872340547223e-01 -4.7949431210111970e-03 0.0000000000000000e+00  -5.5857611369336468e-01 1.1833311433898097e-03 0.0000000000000000e+00  -5.9510226855814374e-01 -4.8671929075483344e-03 0.0000000000000000e+00  -7.2426999732394470e-01 -3.6066307845468160e-03 0.0000000000000000e+00  -9.3201560457765809e-01 -1.1012797112480155e-03 0.0000000000000000e+00  -8.8707847404012130e-01 -1.4005931127736293e-04 0.0000000000000000e+00  -9.9130853042148348e-01 -5.2201911348103563e-04 0.0000000000000000e+00  -9.9187760034102679e-01 5.2137807643259926e-04 0.0000000000000000e+00  -9.6548815348069339e-01 -6.0509477133607881e-04 0.0000000000000000e+00  -9.2441625249347836e-01 -2.1813842275522077e-03 0.0000000000000000e+00  -9.9947574905925174e-01 -3.2744261990069745e-05 0.0000000000000000e+00  -9.9012306766367186e-01 2.2218013321987588e-04 0.0000000000000000e+00  -9.6505092579802243e-01 -1.4322566413540461e-03 0.0000000000000000e+00  -9.9077266685569909e-01 -5.9228141095143960e-04 0.0000000000000000e+00  -7.2981401615040464e-01 2.4207108633497849e-03 0.0000000000000000e+00  -9.2406066096689687e-01 -1.8072195734438190e-03 0.0000000000000000e+00  -5.4012374625735782e-01 5.0744119029387802e-03 0.0000000000000000e+00  -1.9458374715775820e-01 2.5109325671482463e-03 0.0000000000000000e+00  -1.9413777022079673e-01 2.5427210112684978e-03 0.0000000000000000e+00  -5.2352375870796886e-01 -3.2481047106221531e-04 0.0000000000000000e+00  -6.2887085237726126e-01 -1.8224952089255786e-03 0.0000000000000000e+00  -7.2694347522974967e-01 2.6067133969551372e-03 0.0000000000000000e+00  -9.9289714590429079e-01 6.6073693461493610e-04 0.0000000000000000e+00  -9.6782411097572130e-01 -6.0572445364248662e-04 0.0000000000000000e+00  -9.9448792014660714e-01 4.7698398399267927e-04 0.0000000000000000e+00  -6.4012297502326609e-01 -8.8312477069255740e-04 0.0000000000000000e+00  -9.5200696004256091e-01 -5.0998764425319587e-04 0.0000000000000000e+00  -9.4777088771749574e-01 1.1106772509447138e-03 0.0000000000000000e+00  -8.1122180393157051e-01 2.9109298988664323e-03 0.0000000000000000e+00  -7.3380566396288494e-01 -3.9518679578393889e-03 0.0000000000000000e+00  -8.1268076169123027e-01 -5.1314779992378545e-04 0.0000000000000000e+00  -9.2199043049874208e-01 1.8236777293352269e-03 0.0000000000000000e+00  -2.1189830889618069e-01 5.4319497118682225e-03 0.0000000000000000e+00  -2.9334560852889535e-01 -4.2544333669367052e-03 0.0000000000000000e+00  -9.8009193311991805e-01 5.4619499002428462e-04 0.0000000000000000e+00  -9.7897057805207532e-01 1.1764470912610792e-03 0.0000000000000000e+00  -8.8653637474747549e-01 -1.4010872800227503e-03 0.0000000000000000e+00  -9.7682343703542629e-01 5.1405598894613269e-04 0.0000000000000000e+00  -9.9478423474134969e-01 -4.7486514231101506e-04 0.0000000000000000e+00  -4.5052379831459888e-01 3.3918715548630282e-03 0.0000000000000000e+00  -8.5941819637239858e-01 2.1571422064470269e-03 0.0000000000000000e+00  -8.9614756895406389e-01 3.4443623673991453e-03 0.0000000000000000e+00  -7.2550390809662002e-01 -4.0700180546229814e-04 0.0000000000000000e+00  -9.9346092028960287e-01 -3.9658359173821989e-04 0.0000000000000000e+00  -8.7135617650850694e-01 1.4353127249133735e-03 0.0000000000000000e+00  -9.2662279662324054e-01 1.0389250382588922e-03 0.0000000000000000e+00  -8.8153975761917958e-01 1.0579304054030153e-03 0.0000000000000000e+00  -9.3111845852279695e-01 1.3539687169161208e-03 0.0000000000000000e+00  -8.5048259991336583e-01 -2.6214085138808185e-03 0.0000000000000000e+00  -9.9910965205585023e-01 1.4687540226687723e-04 0.0000000000000000e+00  -9.9475243011609549e-01 -2.5875734910463244e-04 0.0000000000000000e+00  -7.0475168160171431e-01 1.6073139407056791e-03 0.0000000000000000e+00  -4.6923908910627715e-01 4.8371195134193079e-03 0.0000000000000000e+00  -8.7697807325967769e-01 -6.8696922975247654e-04 0.0000000000000000e+00  -8.0186939037310312e-01 2.6427508117100873e-03 0.0000000000000000e+00  -9.8771315362373469e-01 -7.0487254279782974e-04 0.0000000000000000e+00  -9.6672730522568506e-01 1.0259757402797387e-03 0.0000000000000000e+00  -9.2242103328479230e-01 -2.5070877457009089e-03 0.0000000000000000e+00  -9.7888014330101725e-01 -6.7239740852736984e-04 0.0000000000000000e+00  -9.7341366936819929e-01 9.8320799536444348e-04 0.0000000000000000e+00  -4.6025644770407315e-01 2.6558434663854213e-03 0.0000000000000000e+00  -7.6353109634356475e-01 1.6115566472421905e-03 0.0000000000000000e+00  -8.0621797897915193e-01 3.4418422694135753e-03 0.0000000000000000e+00  -9.9665954696892178e-01 4.1197970214801316e-04 0.0000000000000000e+00  -9.6611120822792318e-01 8.9219191676878640e-04 0.0000000000000000e+00  -9.6675820630775466e-01 -1.1154043887921239e-03 0.0000000000000000e+00  -7.1208043329193138e-01 1.7168254625380408e-03 0.0000000000000000e+00  -8.8557599380464702e-01 1.2390921115839615e-03 0.0000000000000000e+00  -7.9184994764054950e-01 -3.6640112004919789e-03 0.0000000000000000e+00  -8.2112770540591351e-01 -2.6403016731011558e-03 0.0000000000000000e+00  -9.8178434378824886e-01 -6.6685244907327412e-04 0.0000000000000000e+00  -7.5154310837688687e-01 1.5126161762565732e-03 0.0000000000000000e+00  -9.6238411426650716e-01 1.4446200157740563e-03 0.0000000000000000e+00  -9.8924414535079941e-01 1.7081029251164725e-04 0.0000000000000000e+00  -9.9545800786329752e-01 1.3134440712725404e-04 0.0000000000000000e+00  -8.6035357461685691e-01 2.0007111146174428e-03 0.0000000000000000e+00  -5.0562775092104673e-01 -7.5217123468018787e-04 0.0000000000000000e+00  -7.6600877486287611e-01 -5.6994021028267117e-04 0.0000000000000000e+00  -8.6253777523358710e-01 2.9083843033146373e-03 0.0000000000000000e+00  -3.1615629680511176e-01 -1.0531899260105004e-03 0.0000000000000000e+00  -1.9351718397418932e-01 -4.2566405753717840e-03 0.0000000000000000e+00  -8.4390950294662115e-01 -2.1495596939520856e-03 0.0000000000000000e+00  -9.3659945772082642e-01 8.6724973333995869e-04 0.0000000000000000e+00  -8.8740193152312874e-01 -6.6909356332212067e-04 0.0000000000000000e+00  -9.0888292173137819e-01 -8.6942031297909672e-04 0.0000000000000000e+00  -4.0562039228713070e-01 3.9000445595926570e-03 0.0000000000000000e+00  -9.9972654567990171e-01 1.6538142870059502e-04 0.0000000000000000e+00  -6.4847104213295714e-01 1.6169815174258972e-03 0.0000000000000000e+00  -5.3304452245177270e-01 -3.1377440090917114e-03 0.0000000000000000e+00  -6.0301821295442171e-01 -2.6398903038062638e-03 0.0000000000000000e+00  -6.1549409676800437e-01 -2.3643835452820117e-03 0.0000000000000000e+00  -6.5512061360279306e-01 -4.3553161775128357e-03 0.0000000000000000e+00  -8.6831328041166089e-01 1.4109081873263651e-03 0.0000000000000000e+00  -8.8362005113179976e-01 -2.3123219516670568e-03 0.0000000000000000e+00  -9.3239809570595977e-01 -8.4088767927305297e-04 0.0000000000000000e+00  -9.7010501163042728e-01 -6.5414483940501311e-04 0.0000000000000000e+00  -2.5518932429965946e-01 1.5442281762725607e-03 0.0000000000000000e+00  -3.4938512934480298e-01 1.8904990148785219e-03 0.0000000000000000e+00  -3.1265936078393841e-01 -1.7211379349402200e-03 0.0000000000000000e+00  -9.5701474046405577e-01 8.1896098220207714e-04 0.0000000000000000e+00  -9.5926307438729319e-01 -2.2648175032038281e-04 0.0000000000000000e+00  -7.9702262596053775e-01 -3.0829551564461044e-03 0.0000000000000000e+00  -5.4120435