<?xml version="1.0"?>
<VTKFile type="UnstructuredGrid"  version="0.1"  >
<UnstructuredGrid>
<Piece  NumberOfPoints="1385" NumberOfCells="2640">
<Points>
<DataArray  type="Float64"  NumberOfComponents="3"  format="ascii">0 0 0  1 0 0  1 1 0  0 1 0  0.5 0 0  1 0.5 0  0.5 1 0  0 0.5 0  0.5 0.5 0  0 0.25 0  0.25 0 0  0.25 1 0  0 0.75 0  1 0.25 0  0.75 0 0  1 0.75 0  0.75 1 0  0.7083333333333333 0.2916666666666667 0  0.2916666666666666 0.7083333333333334 0  0.375 0.25 0  0.75 0.625 0  0.2569444444444444 0.4652777777777778 0  0.5366379310344828 0.7535919540229885 0  0.1875 0.1875 0  0.8125 0.8125 0  0.869047619047619 0.375 0  0.1450441919191919 0.6052714646464646 0  0.375 0.8690476190476191 0  0.5526960784313725 0.1825980392156862 0  0.8385416666666666 0.1614583333333334 0  0.1614583333333333 0.8385416666666667 0  0.6736111111111112 0.4652777777777778 0  0.1367521367521368 0.3477564102564102 0  0.6570970491253563 0.8648656830417855 0  0.5102479397556124 0.3386260301221938 0  0.3654513888888889 0.5737847222222222 0  0.6929750044954185 0.1362784921584263 0  0.388576102743835 0.411911725237599 0  0.6091269841269842 0.5942460317460317 0  0.875 0.6875 0  0.427278890279516 0.119889445139758 0  0.8544456845238095 0.5213913690476191 0  0.125 0 0  0 0.125 0  1 0.875 0  0.875 1 0  0.1280008648150532 0.4769292340226777 0  0.2695382451711197 0.3321750950221553 0  0.7031567235715964 0.7447810921428012 0  0.625 0 0  0.375 0 0  0.125 1 0  0.875 0 0  0 0.375 0  0 0.625 0  1 0.375 0  0.375 1 0  1 0.125 0  0 0.875 0  0.625 1 0  1 0.625 0  0.2979288363930608 0.1201429454643536 0  0.410919540229885 0.7484605911330049 0  0.5325041980395562 0.878905151526474 0  0.4831670727569156 0.6331060043826487 0  0.1735997378973042 0.7204747378973043 0  0.2534919507575758 0.5772372159090909 0  0.2633928571428572 0.8876488095238095 0  0.8199404761904761 0.2730654761904762 0  0.75830270586982 0.3919383189517417 0  0.5750282248382511 0.4237522353023667 0  0.6008360210023379 0.2794828358598495 0  0.08163442644334186 0.6821295860397322 0  0.08333333333333333 0.1875 0  0.2028380815996574 0.08844602719988583 0  0.2766521142611967 0.2325436572164097 0  0.90625 0.78125 0  0.890625 0.890625 0  0.7545696325008384 0.8973565441669461 0  0.5625 0.08086590340834317 0  0.09077380952380953 0.09077380952380952 0  0.4610923478694773 0.209034015149656 0  0.7542527598351648 0.5248380520595106 0  0.6459235536037465 0.3619913988405765 0  0.7560381768882634 0.20506142233852 0  0.07073252688172042 0.8125 0  0.0924753097241701 0.9078102849914793 0  0.9292674731182795 0.1875 0  0.9075246902758297 0.09218971500852073 0  0.8125 0.07073252688172045 0  0.2400955776842301 0.7869705776842302 0  0.9121050213379069 0.2781978201831695 0  0.7916878157143976 0.7239689078571988 0  0.9345238095238094 0.4375 0  0.4375 0.9345238095238095 0  0.3725616989755203 0.6651895248862173 0  0.06536271996350887 0.5625 0  0.9348362560379583 0.5625 0  0.456646798987055 0.8277247094351965 0  0.1875 0.9355758238725954 0  0.6169761231634859 0.6939779188977889 0  0.6226854751147515 0.7827911461419014 0  0.3305695598137626 0.7901697871282585 0  0.5865305325818898 0.5101085479043448 0  0.6622701297028378 0.2177663989757395 0  0.1354166666666667 0.2591702279202279 0  0 0.3125 0  0.2094429575680048 0.3936361846162499 0  0.836666296419157 0.607917407161686 0  0.6875 1 0  0.214261555450504 0.6492551722020035 0  0 0.4375 0  0.07731537126068377 0.40625 0  0.3427725432967068 0.4879566233699599 0  0.3550792513951871 0.3331953632609953 0  0.4462473953896857 0.2887834789342508 0  0.4747801464819794 0.417386052030127 0  0.8229836475148948 0.4443292349237342 0  0.7322605135514757 0.8199240278289671 0  0.6756431877205955 0.5468989748126787 0  0.1968419507215863 0.5194573482612496 0  0.3285590277777778 0.9345238095238095 0  0.8125 1 0  0.4198917601920009 0.5134893045331258 0  0.5232405503206691 0.2595791787880157 0  1 0.9375 0  0.1987510870015086 0.3025185951894431 0  0.5625 1 0  0.6005390654136388 0.9228110509230952 0  0.6411254848194414 0.07704872765442942 0  0.3357233162523242 0.1855113224530532 0  0.6730653396610877 0.6393887462324165 0  0.310966987234063 0.6240019765311626 0  0.7368737836204349 0.07457755202327881 0  0.6192316414418171 0.1485238406378594 0  0.5432429670607106 0.678552703844006 0  0.4754371679695679 0.7103946803120881 0  0.07501324890749672 0.3043839897335739 0  0.5358146975860403 0.5688321463205916 0  0.3115271739500156 0.3982137365971444 0  0.3625191397122174 0.0767854603650549 0  0.5024029442563831 0.1264128223758444 0  0.4375 0 0  0.4699946908887376 0.06379961173775725 0  0.9375 0.71875 0  0.9272105898044465 0.635671179608893 0  0.9375 1 0  0.6690971819568612 0.9331530898202766 0  0.1073454944778885 0.7499206387638554 0  0.8699082999280406 0.2232403652524313 0  0.5773118091863964 0.3548027349159383 0  0.1354166666666667 0.1428571428571428 0  0.3125 0 0  0.8241684193077341 0.9257452995055244 0  0.4352314948354036 0.3586940847489378 0  0.4351301473778832 0.5819726043539077 0  0.8073232928518163 0.3419398170341962 0  0.7775949246947366 0.1298519409204575 0  0.6875 0 0  0.7413513991851041 0.457933324954483 0  0.939453125 0.841796875 0  0.5630355154606987 0.8171875156478349 0  0.9345238095238095 0.3461466592368577 0  0.9375 0 0  1 0.0625 0  0.0625 1 0  0 0.9375 0  0.06552178593177167 0.4969053669623468 0  0.1424866619031703 0.4130277709291224 0  0.1275287182444726 0.5422946908002588 0  0.2637686595586339 0.06413888464529549 0  0.2524263535491086 0.1697437503243817 0  0.7367218397988525 0.6888573970660841 0  0.0625 0 0  0 0.0625 0  0.8463594539285995 0.7578283617857982 0  0.3128751192101563 0.2851997374369947 0  0.4015281788351144 0.1806421385113692 0  0.1910251795116588 0.4553332197174453 0  0.287797471442006 0.5222621440543902 0  0.3962628745986055 0.8097380085535307 0  0.3505895299554843 0.7304878890838692 0  0.5019151500495276 0.9356042615328103 0  0.9374389419410134 0.4999931039076005 0  0.3125 1 0  0.1875 1 0  1 0.5625 0  0.4375 1 0  1 0.3125 0  1 0.4375 0  0.8125 0 0  1 0.1875 0  0.5625 0 0  0.1875 0 0  0 0.1875 0  0 0.5625 0  0 0.6875 0  0 0.8125 0  1 0.6875 0  1 0.8125 0  0.8021696218581627 0.6612893947866073 0  0.06154922295426143 0.6239401126946708 0  0.9359375 0.9359375 0  0.4666158024849896 0.7691515918155014 0  0.2318201265217025 0.7064974250277525 0  0.1565954253579966 0.6635489312486841 0  0.1598132503680848 0.7787147500325552 0  0.3146529991605639 0.8510876378205265 0  0.1461873209418733 0.05982804528877814 0  0.06109554988524315 0.2446551776247686 0  0.8054950308560754 0.5564226538848541 0  0.470541749491976 0.8853316336952531 0  0.6948472567465137 0.4042308563372457 0  0.8802828472348889 0.4658893256343853 0  0.6788075634946739 0.7974194205806069 0  0.2155048659603867 0.2428201584940968 0  0.8131223143423806 0.2132171049028394 0  0.4330798005432235 0.6671274900735726 0  0.6015279126162613 0.2187368078743274 0  0.8061636571464289 0.8703766630361714 0  0.7008230445061776 0.3478568388444072 0  0.8638466246958771 0.3147095987735538 0  0.204801534004265 0.8789209409594009 0  0.2449006736431132 0.9424182882803838 0  0.7611268409371427 0.2643056884799992 0  0.7552800864046191 0.7678006649959446 0  0.5983639638906616 0.864113435029236 0  0.1956559506814437 0.577281203577426 0  0.3527670268164207 0.1320469097565204 0  0.7530364577483248 0.3262386077083089 0  0.4535919187979363 0.4690107087451527 0  0.8824869791666666 0.8336588541666666 0  0.8814453125 0.9451171875 0  0.5582987942628019 0.622421666543858 0  0.6817532446064828 0.6939001801354731 0  0.3830295138888889 0.9450968952922078 0  0.4140603937012541 0.05211333372716105 0  0.5535864501303013 0.3060591985391672 0  0.6560130086346878 0.2729726562211558 0  0.890203140221684 0.5948314305427268 0  0.7043857725999024 0.593980890020804 0  0.5105843922695152 0.8016828014338627 0  0.05365910753708378 0.7315110031682004 0  0.616904573672261 0.4621186633436136 0  0.5338511646455415 0.387875898899613 0  0.5231769258947843 0.4477682463140762 0  0.650302973237622 0.7370722302085519 0  0.3927483139621257 0.4662414504529014 0  0.8034595960585199 0.4972538342758211 0  0.7738337841682438 0.9496376207663251 0  0.7193737507158268 0.954685447650112 0  0.482525916480686 0.5528257169991676 0  0.2533501157346781 0.2809495420003238 0  0.3118487924482243 0.5702930126570319 0  0.6257598847669529 0.4104163315430518 0  0.1354166666666667 0.1955605158730158 0  0.04166666666666666 0.15625 0  0.3956448985530264 0.6174149462065157 0  0.8102897701818546 0.3938784238208349 0  0.2641154190013625 0.8344469561943118 0  0.642852220770013 0.5068794586563659 0  0.05271458179508221 0.355846947336007 0  0.7021551360070266 0.8921457280225779 0  0.5692125776683765 0.1328512638850284 0  0.5206162811937602 0.04865158770992991 0  0.6001838442201555 0.04540556991297563 0  0.2597716608242787 0.4118346398477178 0  0.4040584599473195 0.3179589136784675 0  0.1480337679295207 0.8941560631483065 0  0.1344356707112281 0.9466251177415842 0  0.7114696411829317 0.4983917389078826 0  0.7585704698442475 0.5751926345944629 0  0.2189131956390871 0.04022068508159698 0  0.2476935455192043 0.1123642267635843 0  0.185995005654517 0.1365524537205238 0  0.6223414373308711 0.643380839165121 0  0.5732602596637543 0.7190051747306219 0  0.268358222364537 0.6586246524467934 0  0.3265879848129173 0.2369791782191225 0  0.1267095595787346 0.7034787238999181 0  0.1115202922226038 0.6421997933884982 0  0.3128688392940203 0.07260997451790079 0  0.550724900485678 0.9253360991633187 0  0.7142608810459105 0.2384904702214873 0  0.7045869185243887 0.1871826897887429 0  0.890625 0.734375 0  0.953125 0.765625 0  0.2111812642821677 0.8286209446459138 0  0.9590293078204457 0.09375 0  0.953431269039847 0.1435719386408004 0  0.04097069217955424 0.90625 0  0.04656873096015299 0.8564280613591996 0  0.1078743037981226 0.8541621766048062 0  0.8921256962018773 0.1458378233951939 0  0.8521576979194619 0.1084496634207678 0  0.8655663982740958 0.05464346096571447 0  0.04005659640905543 0.09375 0  0.1001448316533417 0.04246776244228261 
[...]
<PointData  Vectors="f_8394-0-1"> 
<DataArray  type="Float64"  Name="f_8394-0-1"  NumberOfComponents="3" format="ascii">4.2157488628151440e-03 -1.7423374925704810e-02 0.0000000000000000e+00  1.4845085224054642e-03 -8.4260903491723560e-01 0.0000000000000000e+00  2.4054367615164622e-03 -9.1293329342790019e-01 0.0000000000000000e+00  9.7975377044937518e-06 -8.4534416990313976e-01 0.0000000000000000e+00  3.0515105544104970e-03 -4.8601991752392149e-01 0.0000000000000000e+00  -1.3592230579162479e-04 -9.9706836330497461e-01 0.0000000000000000e+00  1.0162002700664363e-04 -9.9769469079923889e-01 0.0000000000000000e+00  5.2814573239018947e-03 -4.8438186962711660e-01 0.0000000000000000e+00  -2.1271990786214112e-03 -8.3688706308322913e-01 0.0000000000000000e+00  1.6661978474119999e-03 -2.5577596981960882e-01 0.0000000000000000e+00  4.0889816622690089e-03 -2.5516464835131275e-01 0.0000000000000000e+00  -9.8196881680223669e-04 -9.4601407453599551e-01 0.0000000000000000e+00  1.0320315708391144e-03 -6.8639922696379208e-01 0.0000000000000000e+00  -1.7675221791944029e-03 -9.4656686809420154e-01 0.0000000000000000e+00  -1.6294975410910406e-03 -6.7500321726260248e-01 0.0000000000000000e+00  1.0579244765080986e-03 -9.8543993568567245e-01 0.0000000000000000e+00  6.3983734089787664e-04 -9.8360394012575691e-01 0.0000000000000000e+00  1.2907023790867944e-03 -8.4668717815940164e-01 0.0000000000000000e+00  3.3772098082978097e-03 -8.4578663301717893e-01 0.0000000000000000e+00  -2.2253796947389881e-03 -5.8042063257734056e-01 0.0000000000000000e+00  -7.7234769852058127e-04 -9.7993255127240519e-01 0.0000000000000000e+00  1.2657253836145799e-06 -6.5532647871619532e-01 0.0000000000000000e+00  1.0073504458738558e-03 -9.6381031075627044e-01 0.0000000000000000e+00  -4.1089523664054224e-03 -3.5818996993841745e-01 0.0000000000000000e+00  3.2013777172645863e-04 -9.9863121223996099e-01 0.0000000000000000e+00  8.5512711095549199e-04 -9.5107453060296909e-01 0.0000000000000000e+00  -1.5193622605744472e-03 -6.7517058543470987e-01 0.0000000000000000e+00  8.2648382322103586e-04 -9.5006043572419852e-01 0.0000000000000000e+00  3.0563872779814372e-03 -6.6922065292104993e-01 0.0000000000000000e+00  -1.7584863364126062e-03 -8.4711746593055970e-01 0.0000000000000000e+00  -2.2847086172291253e-03 -8.3785691810736462e-01 0.0000000000000000e+00  4.1159652265654323e-04 -9.1270431543058950e-01 0.0000000000000000e+00  -1.3627186160197202e-03 -4.7055823316710876e-01 0.0000000000000000e+00  1.9795040883119341e-04 -9.9902510166055780e-01 0.0000000000000000e+00  -4.3630929303189459e-03 -7.4624944140587157e-01 0.0000000000000000e+00  1.3182213115616737e-03 -8.1282819352892810e-01 0.0000000000000000e+00  -2.2456395188034106e-03 -7.3242365242399587e-01 0.0000000000000000e+00  -1.8164003373718485e-03 -7.1418096700410438e-01 0.0000000000000000e+00  -8.2440104261854996e-04 -9.3313648011718409e-01 0.0000000000000000e+00  -6.6612328451842728e-05 -9.9996256631743108e-01 0.0000000000000000e+00  4.4807157267413161e-03 -5.2897405484620508e-01 0.0000000000000000e+00  3.4732676851789712e-04 -9.8285254313373027e-01 0.0000000000000000e+00  4.5867501459863520e-03 -1.2721474658720158e-01 0.0000000000000000e+00  -1.3125349865910664e-04 -1.3072296672353487e-01 0.0000000000000000e+00  1.9183987796792534e-03 -9.5648535876002150e-01 0.0000000000000000e+00  1.1065079081699625e-03 -9.5527287624453028e-01 0.0000000000000000e+00  3.1415860298026621e-03 -5.7442329376370815e-01 0.0000000000000000e+00  -4.2367030142402839e-03 -5.5902283852771883e-01 0.0000000000000000e+00  -3.9004494279554214e-04 -9.9122139982427182e-01 0.0000000000000000e+00  1.8480974278038964e-03 -5.9127221746409353e-01 0.0000000000000000e+00  5.9405958541282056e-03 -3.6892640921996900e-01 0.0000000000000000e+00  -2.2963993176799979e-03 -9.0038396140929033e-01 0.0000000000000000e+00  3.4066522229660723e-03 -7.7063716396822857e-01 0.0000000000000000e+00  5.7677389855638750e-03 -3.7649420026144464e-01 0.0000000000000000e+00  1.6595685437632000e-03 -5.9045820492273660e-01 0.0000000000000000e+00  -1.2619592526261769e-03 -9.7926767999760422e-01 0.0000000000000000e+00  1.5491545159099229e-04 -9.8289220845609315e-01 0.0000000000000000e+00  -2.5567488043827247e-03 -8.9981286944168437e-01 0.0000000000000000e+00  2.8834486954333327e-03 -7.7216027922480945e-01 0.0000000000000000e+00  1.0502954387159313e-04 -9.9854823536778703e-01 0.0000000000000000e+00  2.6677482085601945e-04 -9.9876821614907518e-01 0.0000000000000000e+00  4.3106752281822092e-03 -4.1650104918779779e-01 0.0000000000000000e+00  -1.0089320389690681e-03 -9.1472495703303514e-01 0.0000000000000000e+00  -1.0151650557267411e-03 -9.8672188255212057e-01 0.0000000000000000e+00  -2.1114649372534489e-03 -8.9570545975713611e-01 0.0000000000000000e+00  2.2083943731845412e-03 -7.8431223934418304e-01 0.0000000000000000e+00  5.1493006357442583e-03 -7.4102739671229356e-01 0.0000000000000000e+00  -2.0459051307517573e-03 -9.0844081450526515e-01 0.0000000000000000e+00  -8.0264516406970687e-04 -8.8331244539956721e-01 0.0000000000000000e+00  1.1656002346973615e-03 -9.1643514739883747e-01 0.0000000000000000e+00  2.5839377928625895e-03 -8.4568159671655574e-01 0.0000000000000000e+00  7.2186244505434427e-04 -7.7726481217865540e-01 0.0000000000000000e+00  -3.7109877414044923e-03 -6.8605329741216137e-01 0.0000000000000000e+00  -4.1838870131494094e-03 -2.6628016527449799e-01 0.0000000000000000e+00  -3.9322724067390666e-03 -2.7877771981190835e-01 0.0000000000000000e+00  3.0772572346236260e-03 -4.9233139721791574e-01 0.0000000000000000e+00  7.8290828800400836e-04 -9.9212339044244591e-01 0.0000000000000000e+00  4.4695244840831094e-04 -9.7948232216642606e-01 0.0000000000000000e+00  2.5066444921453129e-04 -9.9629324745275838e-01 0.0000000000000000e+00  -2.5561937002629501e-03 -6.0113242585479099e-01 0.0000000000000000e+00  4.3187920781657119e-03 -1.7460090325297087e-01 0.0000000000000000e+00  -8.6372490432098936e-04 -6.1489053810960537e-01 0.0000000000000000e+00  5.8106642872268743e-04 -9.6029275548403370e-01 0.0000000000000000e+00  -2.5838699244412899e-03 -8.4786441533056511e-01 0.0000000000000000e+00  -2.3402338613566220e-03 -8.1523640888127358e-01 0.0000000000000000e+00  7.6333797610247944e-04 -7.7969632167156799e-01 0.0000000000000000e+00  -1.2549901466825664e-03 -8.3655909084492963e-01 0.0000000000000000e+00  1.4084960850394290e-03 -9.0369659195972341e-01 0.0000000000000000e+00  -2.4227792659618774e-03 -8.4219390031285013e-01 0.0000000000000000e+00  3.7797975705566311e-03 -7.7568363688561082e-01 0.0000000000000000e+00  -1.8108657060381290e-03 -8.5139575292360470e-01 0.0000000000000000e+00  -1.2293461186549948e-03 -9.2696527841508647e-01 0.0000000000000000e+00  2.0640181552220027e-04 -9.9910954624839388e-01 0.0000000000000000e+00  6.1010010323608865e-04 -9.8226168828978266e-01 0.0000000000000000e+00  3.5738540618435177e-04 -9.8168704764033821e-01 0.0000000000000000e+00  -2.3724151764363821e-03 -8.5728413317019336e-01 0.0000000000000000e+00  -2.5863232330843068e-03 -5.8097386423965935e-01 0.0000000000000000e+00  1.7592990200143710e-04 -9.9815199140032740e-01 0.0000000000000000e+00  1.5770015019256345e-04 -9.5799128988739923e-01 0.0000000000000000e+00  -1.9435691080255668e-03 -8.9833170183224986e-01 0.0000000000000000e+00  -1.5017022134762581e-03 -9.6431784405115195e-01 0.0000000000000000e+00  -5.0375735468688454e-04 -9.8487627850381365e-01 0.0000000000000000e+00  2.0576948803784634e-03 -9.0304441947482106e-01 0.0000000000000000e+00  7.4525054411361813e-04 -8.9372227446586816e-01 0.0000000000000000e+00  -3.5910729395041696e-03 -7.6843479032242268e-01 0.0000000000000000e+00  3.6409120167144038e-03 -3.9054764708131329e-01 0.0000000000000000e+00  5.7427652485476099e-03 -3.1349661554174818e-01 0.0000000000000000e+00  4.2665307690293863e-03 -5.7467855967516568e-01 0.0000000000000000e+00  -1.6142436462851517e-04 -9.9257334204224157e-01 0.0000000000000000e+00  6.2358016221603085e-04 -9.9313190166349408e-01 0.0000000000000000e+00  7.2182719356744807e-05 -7.5523128245858218e-01 0.0000000000000000e+00  -2.6303299831667414e-03 -4.2687791427285460e-01 0.0000000000000000e+00  -4.1002681801463603e-04 -4.7294849527355465e-01 0.0000000000000000e+00  -1.5366958014493837e-03 -7.3138908412314341e-01 0.0000000000000000e+00  2.6731070308707583e-03 -6.4189943131730876e-01 0.0000000000000000e+00  1.9236134480888900e-03 -6.7953602493059695e-01 0.0000000000000000e+00  1.0154646880113360e-03 -7.8512575849387012e-01 0.0000000000000000e+00  -5.0560935110917360e-04 -9.5123505959548971e-01 0.0000000000000000e+00  1.8618749721421857e-06 -9.9989418928477036e-01 0.0000000000000000e+00  1.2630811535820907e-03 -9.4277092451109157e-01 0.0000000000000000e+00  3.6968692800371517e-03 -6.6272354114034793e-01 0.0000000000000000e+00  -2.0362134418032696e-03 -9.4988924693709120e-01 0.0000000000000000e+00  9.4518665938338187e-04 -9.7075997131900860e-01 0.0000000000000000e+00  2.3950795727176455e-03 -8.0423892261960150e-01 0.0000000000000000e+00  -2.6688303225596011e-03 -7.0068042373030348e-01 0.0000000000000000e+00  2.2355922199932543e-03 -9.3640791799790446e-01 0.0000000000000000e+00  3.4817474704460158e-03 -4.8837370233053057e-01 0.0000000000000000e+00  -8.2187399723476654e-05 -9.9962099443082997e-01 0.0000000000000000e+00  2.3987514493201134e-05 -9.9851046698653145e-01 0.0000000000000000e+00  1.2779643521925454e-03 -6.6424522980126333e-01 0.0000000000000000e+00  -3.7024334391276836e-03 -4.8713056798151666e-01 0.0000000000000000e+00  -1.0665914025234091e-03 -9.6464715434296966e-01 0.0000000000000000e+00  -1.5013228516537747e-03 -7.9825922885480449e-01 0.0000000000000000e+00  4.2090953981350210e-03 -7.3127777059122001e-01 0.0000000000000000e+00  2.3252534419796467e-03 -7.0143479475305459e-01 0.0000000000000000e+00  1.1831494318986779e-03 -9.4312320198025068e-01 0.0000000000000000e+00  1.9273857772323794e-03 -9.3065989452593056e-01 0.0000000000000000e+00  3.2623582223592074e-03 -3.7878328117844823e-01 0.0000000000000000e+00  9.0074046472018564e-04 -8.8983218801718655e-01 0.0000000000000000e+00  2.6900122748495237e-03 -6.5828465617153831e-01 0.0000000000000000e+00  -4.3758920237307875e-03 -4.2101747651234012e-01 0.0000000000000000e+00  2.6989973896788325e-03 -5.9475763789300418e-01 0.0000000000000000e+00  4.3989488563656448e-03 -4.2786196137773758e-01 0.0000000000000000e+00  -4.1366363983621479e-03 -5.0149275947845928e-01 0.0000000000000000e+00  2.0327778074222952e-04 -9.9712301334002151e-01 0.0000000000000000e+00  -8.3808860570591670e-05 -1.0000207280811690e+00 0.0000000000000000e+00  -3.1774969778058937e-04 -9.2880353363443735e-01 0.0000000000000000e+00  -2.1582420004773173e-04 -9.9893554649779448e-01 0.0000000000000000e+00  -3.5238529853640621e-03 -7.4924893443927054e-01 0.0000000000000000e+00  -1.5477931641947329e-03 -8.8341533631643332e-01 0.0000000000000000e+00  8.8968199555727878e-04 -8.0885056267308952e-01 0.0000000000000000e+00  2.7500700222279906e-04 -2.8264495886007784e-01 0.0000000000000000e+00  3.0642454980361056e-03 -3.1401130554597723e-01 0.0000000000000000e+00  -1.0404216149671186e-03 -9.8488974378801042e-01 0.0000000000000000e+00  2.1937992956121422e-03 -7.1920476774870090e-01 0.0000000000000000e+00  3.1128331893570116e-03 -8.5293225788428351e-01 0.0000000000000000e+00  7.5605422424970814e-04 -9.1707329484780242e-01 0.0000000000000000e+00  2.9632762129885304e-03 -7.9137222197102630e-01 0.0000000000000000e+00  2.4429454057444122e-03 -6.4108089399700863e-01 0.0000000000000000e+00  -7.1911781759492061e-04 -9.2870995502374798e-01 0.0000000000000000e+00  -7.5983685437075454e-04 -9.7546574667114694e-01 0.0000000000000000e+00  -1.1896858375851638e-03 -9.8078711340499458e-01 0.0000000000000000e+00  -1.5357006986048138e-03 -9.5696134136360567e-01 0.0000000000000000e+00  3.2630991649743035e-03 -8.0938082322529303e-01 0.0000000000000000e+00  -2.1174788048015092e-03 -8.6995120676296112e-01 0.0000000000000000e+00  -2.7273570736049968e-03 -8.7204651981639070e-01 0.0000000000000000e+00  3.5766179914986933e-04 -8.0957946688088334e-01 0.0000000000000000e+00  -2.1614329537669175e-03 -5.2619981669754412e-01 0.0000000000000000e+00  -6.7084529408723004e-04 -5.2044847957086260e-01 0.0000000000000000e+00  -2.3533825494660987e-03 -6.1144283305979585e-01 0.0000000000000000e+00  2.5025241750447624e-03 -3.3164126587353754e-01 0.0000000000000000e+00  3.8818692193992033e-03 -4.1974750552614382e-01 0.0000000000000000e+00  1.3761240464138513e-04 -9.9136546951164539e-01 0.0000000000000000e+00  4.8791936735342219e-03 -6.6740383850125165e-02 0.0000000000000000e+00  -3.2614717093804507e-04 -6.7539797513575278e-02 0.0000000000000000e+00  1.3220036500416477e-04 -9.9968684502367622e-01 0.0000000000000000e+00  -5.2805926039709850e-03 -5.5669723622945755e-01 0.0000000000000000e+00  1.1767166292878661e-03 -5.5927356268675854e-01 0.0000000000000000e+00  -4.7023949744906673e-03 -5.9826860104962132e-01 0.0000000000000000e+00  -3.1005575967162358e-03 -7.1917841233513746e-01 0.0000000000000000e+00  -1.6103341506603086e-03 -9.3046683361238092e-01 0.0000000000000000e+00  2.7830675774831448e-04 -8.8740546467681813e-01 0.0000000000000000e+00  -6.0660403847068167e-04 -9.8986452030611316e-01 0.0000000000000000e+00  5.3552368797842725e-04 -9.9235010009673352e-01 0.0000000000000000e+00  -5.9530019798409439e-04 -9.6467667890281517e-01 0.0000000000000000e+00  -2.0789423629186954e-03 -9.2496209244234551e-01 0.0000000000000000e+00  -1.9273321373874187e-04 -1.0000286101338309e+00 0.0000000000000000e+00  1.7693333225651808e-04 -9.9245679947531806e-01 0.0000000000000000e+00  -1.4784827438266701e-03 -9.6514842031093728e-01 0.0000000000000000e+00  -5.6431665523026808e-04 -9.8992116463233903e-01 0.0000000000000000e+00  2.2847780928706048e-03 -7.3142999025080369e-01 0.0000000000000000e+00  -1.8841569561350857e-03 -9.2455070079510748e-01 0.0000000000000000e+00  5.1990927293079359e-03 -5.3705537906380285e-01 0.0000000000000000e+00  2.9236559715611482e-03 -1.9452347158668490e-01 0.0000000000000000e+00  2.4329776471059801e-03 -1.9342539121660413e-01 0.0000000000000000e+00  -2.2740552690860678e-04 -5.4263522262630570e-01 0.0000000000000000e+00  -1.6514461210626534e-03 -6.3507349348500242e-01 0.0000000000000000e+00  2.5320320698354326e-03 -7.3334653044409681e-01 0.0000000000000000e+00  6.4493620726124856e-04 -9.9371005604698626e-01 0.0000000000000000e+00  -4.9636897358679524e-04 -9.7260336015099469e-01 0.0000000000000000e+00  4.2185086074719713e-04 -9.9533534111026811e-01 0.0000000000000000e+00  -3.0247564336600974e-04 -6.2322774472817577e-01 0.0000000000000000e+00  -8.9567992895966952e-04 -9.5164579375362846e-01 0.0000000000000000e+00  1.0751623257465592e-03 -9.4782361766860901e-01 0.0000000000000000e+00  3.6515057195969924e-03 -8.0997124103432061e-01 0.0000000000000000e+00  -3.0248775327582633e-03 -7.2427328961818893e-01 0.0000000000000000e+00  -5.2605961185264727e-04 -8.0316694186914550e-01 0.0000000000000000e+00  1.9072083627577063e-03 -9.2086817830302048e-01 0.0000000000000000e+00  4.4602465541313113e-03 -2.1170265188530754e-01 0.0000000000000000e+00  -5.2724984451317652e-03 -2.9740110021203575e-01 0.0000000000000000e+00  5.0646125168468670e-04 -9.8016586037754616e-01 0.0000000000000000e+00  1.2220665758469473e-03 -9.7719180810411921e-01 0.0000000000000000e+00  -9.7536697240949155e-04 -8.9353860712389421e-01 0.0000000000000000e+00  5.7644021394731570e-04 -9.7732596360877755e-01 0.0000000000000000e+00  -3.2843413574323854e-04 -9.9492905795636000e-01 0.0000000000000000e+00  2.9841838085620798e-03 -4.5060105336792228e-01 0.0000000000000000e+00  2.6019515956787476e-03 -8.5738671899557528e-01 0.0000000000000000e+00  3.8645036627665830e-03 -8.9204812946633094e-01 0.0000000000000000e+00  -4.4095009685957143e-04 -7.3803461343338495e-01 0.0000000000000000e+00  -4.9991159821027864e-04 -9.9343403163775024e-01 0.0000000000000000e+00  1.1222503688316440e-03 -8.7217222769564529e-01 0.0000000000000000e+00  1.4270081973994913e-03 -9.2732787724678511e-01 0.0000000000000000e+00  1.2681232620239125e-03 -8.8828217071176607e-01 0.0000000000000000e+00  1.0848395771659858e-03 -9.2975234289289577e-01 0.0000000000000000e+00  -2.6421496328263849e-03 -8.5201123160873904e-01 0.0000000000000000e+00  2.5763799503075724e-04 -9.9915552054436274e-01 0.0000000000000000e+00  -3.2064059719627558e-04 -9.9312798031781946e-01 0.0000000000000000e+00  1.4225887088793465e-03 -6.9615336142079642e-01 0.0000000000000000e+00  3.6797892336078997e-03 -4.7308706484943941e-01 0.0000000000000000e+00  2.4342760331186319e-04 -8.7663220983035761e-01 0.0000000000000000e+00  2.2512794563840366e-03 -8.0183876336530280e-01 0.0000000000000000e+00  -6.4974772769621492e-04 -9.8994324698699121e-01 0.0000000000000000e+00  1.0136443880667256e-03 -9.6991284145929446e-01 0.0000000000000000e+00  -2.4491498067302775e-03 -9.2164321127839832e-01 0.0000000000000000e+00  -7.6078289424766354e-04 -9.8269721570063051e-01 0.0000000000000000e+00  8.3921079312321289e-04 -9.7249757366042933e-01 0.0000000000000000e+00  1.7410058919626881e-03 -4.5913722412262031e-01 0.0000000000000000e+00  1.6633508999401303e-03 -7.6324805917447114e-01 0.0000000000000000e+00  4.4797373202688506e-03 -8.0119093966103605e-01 0.0000000000000000e+00  3.3717300705221609e-04 -9.9693467084625287e-01 0.0000000000000000e+00  6.4926653890773345e-04 -9.6612066234949534e-01 0.0000000000000000e+00  -9.3338855997027181e-04 -9.6448723636062594e-01 0.0000000000000000e+00  2.2867244818584737e-03 -7.1255250641323775e-01 0.0000000000000000e+00  1.0903338188705813e-03 -8.8563591862478919e-01 0.0000000000000000e+00  -3.5010546426572087e-03 -7.9193554353888929e-01 0.0000000000000000e+00  -2.0829565537190398e-03 -8.1998006055805650e-01 0.0000000000000000e+00  -6.5105349719900220e-04 -9.8136574640141305e-01 0.0000000000000000e+00  1.4210441931969131e-03 -7.6344315958057651e-01 0.0000000000000000e+00  1.2776682408741635e-03 -9.6697099055347857e-01 0.0000000000000000e+00  2.1287267620362371e-04 -9.8722388616269108e-01 0.0000000000000000e+00  7.9738440293630752e-05 -9.9376651630900825e-01 0.0000000000000000e+00  2.2772417628542652e-03 -8.6471146132972221e-01 0.0000000000000000e+00  -1.2824432588676993e-03 -5.1509562944246690e-01 0.0000000000000000e+00  -5.7031472721420524e-05 -7.6644525716756340e-01 0.0000000000000000e+00  2.2943708609066693e-03 -8.6541683550297366e-01 0.0000000000000000e+00  2.0670808773870161e-04 -3.1434362146823952e-01 0.0000000000000000e+00  -5.6759310334432156e-03 -1.8803036997179062e-01 0.0000000000000000e+00  -2.1430707612217909e-03 -8.5145552702930416e-01 0.0000000000000000e+00  1.0700323576118831e-03 -9.3665074173533236e-01 0.0000000000000000e+00  -1.4088771013523460e-04 -8.8745808968345052e-01 0.0000000000000000e+00  -6.9115308010822551e-04 -9.0888990594408148e-01 0.0000000000000000e+00  3.5217309366418204e-03 -4.0359204743519916e-01 0.0000000000000000e+00  9.4058451807987886e-05 -9.9971604219548249e-01 0.0000000000000000e+00  7.7586134465715273e-04 -6.4178763115516402e-01 0.0000000000000000e+00  -3.1998125220941143e-03 -5.3238967494948430e-01 0.0000000000000000e+00  -3.3559209945784318e-03 -5.9465973983861853e-01 0.0000000000000000e+00  -2.3081889345362011e-03 -6.1332014487178255e-01 0.0000000000000000e+00  -4.8543752289942066e-03 -6.6247949313827048e-01 0.0000000000000000e+00  1.4618567174561406e-03 -8.6782771181844709e-01 0.0000000000000000e+00  -2.3332994522906603e-03 -8.7788753670699271e-01 0.0000000000000000e+00  -5.4654051995617348e-04 -9.3303072629155159e-01 0.0000000000000000e+00  -7.1675194655035357e-04 -9.7063299995345376e-01 0.0000000000000000e+00  1.0233437650398469e-03 -2.6337975228261495e-01 0.0000000000000000e+00  1.7136482334251801e-03 -3.6014231853998208e-01 0.0000000000000000e+00  -2.2300447311675298e-03 -3.2096032138934372e-01 0.0000000000000000e+00  7.2063725590236494e-04 -9.5179920047577293e-01 0.0000000000000000e+00  -1.7765191556180435e-04 -9.6328892653762466e-01 0.0000000000000000e+00  -2.8586165500116278e-03 -7.9497906751252789e-01 0.0000000000000000e+00  3.8878029092259681e-