<?xml version="1.0"?>
<VTKFile type="UnstructuredGrid"  version="0.1"  >
<UnstructuredGrid>
<Piece  NumberOfPoints="1385" NumberOfCells="2640">
<Points>
<DataArray  type="Float64"  NumberOfComponents="3"  format="ascii">0 0 0  1 0 0  1 1 0  0 1 0  0.5 0 0  1 0.5 0  0.5 1 0  0 0.5 0  0.5 0.5 0  0 0.25 0  0.25 0 0  0.25 1 0  0 0.75 0  1 0.25 0  0.75 0 0  1 0.75 0  0.75 1 0  0.7083333333333333 0.2916666666666667 0  0.2916666666666666 0.7083333333333334 0  0.375 0.25 0  0.75 0.625 0  0.2569444444444444 0.4652777777777778 0  0.5366379310344828 0.7535919540229885 0  0.1875 0.1875 0  0.8125 0.8125 0  0.869047619047619 0.375 0  0.1450441919191919 0.6052714646464646 0  0.375 0.8690476190476191 0  0.5526960784313725 0.1825980392156862 0  0.8385416666666666 0.1614583333333334 0  0.1614583333333333 0.8385416666666667 0  0.6736111111111112 0.4652777777777778 0  0.1367521367521368 0.3477564102564102 0  0.6570970491253563 0.8648656830417855 0  0.5102479397556124 0.3386260301221938 0  0.3654513888888889 0.5737847222222222 0  0.6929750044954185 0.1362784921584263 0  0.388576102743835 0.411911725237599 0  0.6091269841269842 0.5942460317460317 0  0.875 0.6875 0  0.427278890279516 0.119889445139758 0  0.8544456845238095 0.5213913690476191 0  0.125 0 0  0 0.125 0  1 0.875 0  0.875 1 0  0.1280008648150532 0.4769292340226777 0  0.2695382451711197 0.3321750950221553 0  0.7031567235715964 0.7447810921428012 0  0.625 0 0  0.375 0 0  0.125 1 0  0.875 0 0  0 0.375 0  0 0.625 0  1 0.375 0  0.375 1 0  1 0.125 0  0 0.875 0  0.625 1 0  1 0.625 0  0.2979288363930608 0.1201429454643536 0  0.410919540229885 0.7484605911330049 0  0.5325041980395562 0.878905151526474 0  0.4831670727569156 0.6331060043826487 0  0.1735997378973042 0.7204747378973043 0  0.2534919507575758 0.5772372159090909 0  0.2633928571428572 0.8876488095238095 0  0.8199404761904761 0.2730654761904762 0  0.75830270586982 0.3919383189517417 0  0.5750282248382511 0.4237522353023667 0  0.6008360210023379 0.2794828358598495 0  0.08163442644334186 0.6821295860397322 0  0.08333333333333333 0.1875 0  0.2028380815996574 0.08844602719988583 0  0.2766521142611967 0.2325436572164097 0  0.90625 0.78125 0  0.890625 0.890625 0  0.7545696325008384 0.8973565441669461 0  0.5625 0.08086590340834317 0  0.09077380952380953 0.09077380952380952 0  0.4610923478694773 0.209034015149656 0  0.7542527598351648 0.5248380520595106 0  0.6459235536037465 0.3619913988405765 0  0.7560381768882634 0.20506142233852 0  0.07073252688172042 0.8125 0  0.0924753097241701 0.9078102849914793 0  0.9292674731182795 0.1875 0  0.9075246902758297 0.09218971500852073 0  0.8125 0.07073252688172045 0  0.2400955776842301 0.7869705776842302 0  0.9121050213379069 0.2781978201831695 0  0.7916878157143976 0.7239689078571988 0  0.9345238095238094 0.4375 0  0.4375 0.9345238095238095 0  0.3725616989755203 0.6651895248862173 0  0.06536271996350887 0.5625 0  0.9348362560379583 0.5625 0  0.456646798987055 0.8277247094351965 0  0.1875 0.9355758238725954 0  0.6169761231634859 0.6939779188977889 0  0.6226854751147515 0.7827911461419014 0  0.3305695598137626 0.7901697871282585 0  0.5865305325818898 0.5101085479043448 0  0.6622701297028378 0.2177663989757395 0  0.1354166666666667 0.2591702279202279 0  0 0.3125 0  0.2094429575680048 0.3936361846162499 0  0.836666296419157 0.607917407161686 0  0.6875 1 0  0.214261555450504 0.6492551722020035 0  0 0.4375 0  0.07731537126068377 0.40625 0  0.3427725432967068 0.4879566233699599 0  0.3550792513951871 0.3331953632609953 0  0.4462473953896857 0.2887834789342508 0  0.4747801464819794 0.417386052030127 0  0.8229836475148948 0.4443292349237342 0  0.7322605135514757 0.8199240278289671 0  0.6756431877205955 0.5468989748126787 0  0.1968419507215863 0.5194573482612496 0  0.3285590277777778 0.9345238095238095 0  0.8125 1 0  0.4198917601920009 0.5134893045331258 0  0.5232405503206691 0.2595791787880157 0  1 0.9375 0  0.1987510870015086 0.3025185951894431 0  0.5625 1 0  0.6005390654136388 0.9228110509230952 0  0.6411254848194414 0.07704872765442942 0  0.3357233162523242 0.1855113224530532 0  0.6730653396610877 0.6393887462324165 0  0.310966987234063 0.6240019765311626 0  0.7368737836204349 0.07457755202327881 0  0.6192316414418171 0.1485238406378594 0  0.5432429670607106 0.678552703844006 0  0.4754371679695679 0.7103946803120881 0  0.07501324890749672 0.3043839897335739 0  0.5358146975860403 0.5688321463205916 0  0.3115271739500156 0.3982137365971444 0  0.3625191397122174 0.0767854603650549 0  0.5024029442563831 0.1264128223758444 0  0.4375 0 0  0.4699946908887376 0.06379961173775725 0  0.9375 0.71875 0  0.9272105898044465 0.635671179608893 0  0.9375 1 0  0.6690971819568612 0.9331530898202766 0  0.1073454944778885 0.7499206387638554 0  0.8699082999280406 0.2232403652524313 0  0.5773118091863964 0.3548027349159383 0  0.1354166666666667 0.1428571428571428 0  0.3125 0 0  0.8241684193077341 0.9257452995055244 0  0.4352314948354036 0.3586940847489378 0  0.4351301473778832 0.5819726043539077 0  0.8073232928518163 0.3419398170341962 0  0.7775949246947366 0.1298519409204575 0  0.6875 0 0  0.7413513991851041 0.457933324954483 0  0.939453125 0.841796875 0  0.5630355154606987 0.8171875156478349 0  0.9345238095238095 0.3461466592368577 0  0.9375 0 0  1 0.0625 0  0.0625 1 0  0 0.9375 0  0.06552178593177167 0.4969053669623468 0  0.1424866619031703 0.4130277709291224 0  0.1275287182444726 0.5422946908002588 0  0.2637686595586339 0.06413888464529549 0  0.2524263535491086 0.1697437503243817 0  0.7367218397988525 0.6888573970660841 0  0.0625 0 0  0 0.0625 0  0.8463594539285995 0.7578283617857982 0  0.3128751192101563 0.2851997374369947 0  0.4015281788351144 0.1806421385113692 0  0.1910251795116588 0.4553332197174453 0  0.287797471442006 0.5222621440543902 0  0.3962628745986055 0.8097380085535307 0  0.3505895299554843 0.7304878890838692 0  0.5019151500495276 0.9356042615328103 0  0.9374389419410134 0.4999931039076005 0  0.3125 1 0  0.1875 1 0  1 0.5625 0  0.4375 1 0  1 0.3125 0  1 0.4375 0  0.8125 0 0  1 0.1875 0  0.5625 0 0  0.1875 0 0  0 0.1875 0  0 0.5625 0  0 0.6875 0  0 0.8125 0  1 0.6875 0  1 0.8125 0  0.8021696218581627 0.6612893947866073 0  0.06154922295426143 0.6239401126946708 0  0.9359375 0.9359375 0  0.4666158024849896 0.7691515918155014 0  0.2318201265217025 0.7064974250277525 0  0.1565954253579966 0.6635489312486841 0  0.1598132503680848 0.7787147500325552 0  0.3146529991605639 0.8510876378205265 0  0.1461873209418733 0.05982804528877814 0  0.06109554988524315 0.2446551776247686 0  0.8054950308560754 0.5564226538848541 0  0.470541749491976 0.8853316336952531 0  0.6948472567465137 0.4042308563372457 0  0.8802828472348889 0.4658893256343853 0  0.6788075634946739 0.7974194205806069 0  0.2155048659603867 0.2428201584940968 0  0.8131223143423806 0.2132171049028394 0  0.4330798005432235 0.6671274900735726 0  0.6015279126162613 0.2187368078743274 0  0.8061636571464289 0.8703766630361714 0  0.7008230445061776 0.3478568388444072 0  0.8638466246958771 0.3147095987735538 0  0.204801534004265 0.8789209409594009 0  0.2449006736431132 0.9424182882803838 0  0.7611268409371427 0.2643056884799992 0  0.7552800864046191 0.7678006649959446 0  0.5983639638906616 0.864113435029236 0  0.1956559506814437 0.577281203577426 0  0.3527670268164207 0.1320469097565204 0  0.7530364577483248 0.3262386077083089 0  0.4535919187979363 0.4690107087451527 0  0.8824869791666666 0.8336588541666666 0  0.8814453125 0.9451171875 0  0.5582987942628019 0.622421666543858 0  0.6817532446064828 0.6939001801354731 0  0.3830295138888889 0.9450968952922078 0  0.4140603937012541 0.05211333372716105 0  0.5535864501303013 0.3060591985391672 0  0.6560130086346878 0.2729726562211558 0  0.890203140221684 0.5948314305427268 0  0.7043857725999024 0.593980890020804 0  0.5105843922695152 0.8016828014338627 0  0.05365910753708378 0.7315110031682004 0  0.616904573672261 0.4621186633436136 0  0.5338511646455415 0.387875898899613 0  0.5231769258947843 0.4477682463140762 0  0.650302973237622 0.7370722302085519 0  0.3927483139621257 0.4662414504529014 0  0.8034595960585199 0.4972538342758211 0  0.7738337841682438 0.9496376207663251 0  0.7193737507158268 0.954685447650112 0  0.482525916480686 0.5528257169991676 0  0.2533501157346781 0.2809495420003238 0  0.3118487924482243 0.5702930126570319 0  0.6257598847669529 0.4104163315430518 0  0.1354166666666667 0.1955605158730158 0  0.04166666666666666 0.15625 0  0.3956448985530264 0.6174149462065157 0  0.8102897701818546 0.3938784238208349 0  0.2641154190013625 0.8344469561943118 0  0.642852220770013 0.5068794586563659 0  0.05271458179508221 0.355846947336007 0  0.7021551360070266 0.8921457280225779 0  0.5692125776683765 0.1328512638850284 0  0.5206162811937602 0.04865158770992991 0  0.6001838442201555 0.04540556991297563 0  0.2597716608242787 0.4118346398477178 0  0.4040584599473195 0.3179589136784675 0  0.1480337679295207 0.8941560631483065 0  0.1344356707112281 0.9466251177415842 0  0.7114696411829317 0.4983917389078826 0  0.7585704698442475 0.5751926345944629 0  0.2189131956390871 0.04022068508159698 0  0.2476935455192043 0.1123642267635843 0  0.185995005654517 0.1365524537205238 0  0.6223414373308711 0.643380839165121 0  0.5732602596637543 0.7190051747306219 0  0.268358222364537 0.6586246524467934 0  0.3265879848129173 0.2369791782191225 0  0.1267095595787346 0.7034787238999181 0  0.1115202922226038 0.6421997933884982 0  0.3128688392940203 0.07260997451790079 0  0.550724900485678 0.9253360991633187 0  0.7142608810459105 0.2384904702214873 0  0.7045869185243887 0.1871826897887429 0  0.890625 0.734375 0  0.953125 0.765625 0  0.2111812642821677 0.8286209446459138 0  0.9590293078204457 0.09375 0  0.953431269039847 0.1435719386408004 0  0.04097069217955424 0.90625 0  0.04656873096015299 0.8564280613591996 0  0.1078743037981226 0.8541621766048062 0  0.8921256962018773 0.1458378233951939 0  0.8521576979194619 0.1084496634207678 0  0.8655663982740958 0.05464346096571447 0  0.04005659640905543 0.09375 0  0.1001448316533417 0.04246776244228261 
[...]
<PointData  Vectors="f_8394-0-1"> 
<DataArray  type="Float64"  Name="f_8394-0-1"  NumberOfComponents="3" format="ascii">4.2615249670660202e-03 -1.7717176503598411e-02 0.0000000000000000e+00  1.4769119883870864e-03 -8.4195930971878552e-01 0.0000000000000000e+00  2.3958930279286521e-03 -9.1357959051376214e-01 0.0000000000000000e+00  9.6949994790075655e-06 -8.4568552459607638e-01 0.0000000000000000e+00  3.0587377835200880e-03 -4.8561611023273854e-01 0.0000000000000000e+00  -1.3996180213682319e-04 -9.9692158584624879e-01 0.0000000000000000e+00  9.4083044498427526e-05 -9.9801010883992602e-01 0.0000000000000000e+00  5.2610820617443044e-03 -4.8447550252140742e-01 0.0000000000000000e+00  -2.1235732458303458e-03 -8.3672997914824621e-01 0.0000000000000000e+00  1.6795303142563096e-03 -2.5582214011786525e-01 0.0000000000000000e+00  4.0918616047856959e-03 -2.5496266874250822e-01 0.0000000000000000e+00  -9.8415772004026292e-04 -9.4633515832231840e-01 0.0000000000000000e+00  1.0450783714129855e-03 -6.8660966026415782e-01 0.0000000000000000e+00  -1.7674983187171422e-03 -9.4613834330684077e-01 0.0000000000000000e+00  -1.6255699142311286e-03 -6.7445820919415933e-01 0.0000000000000000e+00  1.0704608364254797e-03 -9.8564047749063843e-01 0.0000000000000000e+00  6.4514247705007438e-04 -9.8403367834141886e-01 0.0000000000000000e+00  1.2849388659386118e-03 -8.4630591658835486e-01 0.0000000000000000e+00  3.3732233378174215e-03 -8.4582931532505723e-01 0.0000000000000000e+00  -2.2242416704045254e-03 -5.8019609391403792e-01 0.0000000000000000e+00  -7.7596234777144169e-04 -9.7985184138790116e-01 0.0000000000000000e+00  -2.3146425296438622e-06 -6.5524357489336427e-01 0.0000000000000000e+00  9.9995193817226102e-04 -9.6385115503740937e-01 0.0000000000000000e+00  -4.1128259935243397e-03 -3.5809913204968480e-01 0.0000000000000000e+00  3.1472978561969400e-04 -9.9880216492849272e-01 0.0000000000000000e+00  8.6002067991919340e-04 -9.5073546022886002e-01 0.0000000000000000e+00  -1.5177535989909785e-03 -6.7523373144302679e-01 0.0000000000000000e+00  8.2655096507078252e-04 -9.5022236447365360e-01 0.0000000000000000e+00  3.0503038308309915e-03 -6.6886029222409160e-01 0.0000000000000000e+00  -1.7577551872568625e-03 -8.4661885079987942e-01 0.0000000000000000e+00  -2.2826954048492110e-03 -8.3802837594734270e-01 0.0000000000000000e+00  4.0753026365965284e-04 -9.1246850885448005e-01 0.0000000000000000e+00  -1.3523836514993948e-03 -4.7052221365532915e-01 0.0000000000000000e+00  2.0074285174354056e-04 -9.9921073029339236e-01 0.0000000000000000e+00  -4.3611261093229325e-03 -7.4598913154068724e-01 0.0000000000000000e+00  1.3217532322467029e-03 -8.1275556859897069e-01 0.0000000000000000e+00  -2.2473908690332500e-03 -7.3196663210694901e-01 0.0000000000000000e+00  -1.8132827225696424e-03 -7.1401769536915505e-01 0.0000000000000000e+00  -8.2380670591396254e-04 -9.3302935911698548e-01 0.0000000000000000e+00  -6.6394583388529327e-05 -9.9998568186035286e-01 0.0000000000000000e+00  4.4778697804492146e-03 -5.2865204937791788e-01 0.0000000000000000e+00  3.4775229930672502e-04 -9.8266311196504053e-01 0.0000000000000000e+00  4.6170811048836177e-03 -1.2716480586795822e-01 0.0000000000000000e+00  -8.0239930493708304e-05 -1.3081676007667492e-01 0.0000000000000000e+00  1.9379869935245431e-03 -9.5690078591842576e-01 0.0000000000000000e+00  1.1295005206957698e-03 -9.5577197189825935e-01 0.0000000000000000e+00  3.1458355264331606e-03 -5.7442700886147469e-01 0.0000000000000000e+00  -4.2332987770466457e-03 -5.5889675670735661e-01 0.0000000000000000e+00  -3.9021446974418783e-04 -9.9127081962275276e-01 0.0000000000000000e+00  1.8511430132050477e-03 -5.9077839206230287e-01 0.0000000000000000e+00  5.9397667656393982e-03 -3.6863551057171362e-01 0.0000000000000000e+00  -2.3016689901900755e-03 -9.0070761179519154e-01 0.0000000000000000e+00  3.4023275406550868e-03 -7.7005537069307972e-01 0.0000000000000000e+00  5.7748045561209493e-03 -3.7661439447419887e-01 0.0000000000000000e+00  1.6934525423763355e-03 -5.9058904220115815e-01 0.0000000000000000e+00  -1.2599299979344503e-03 -9.7896797869961993e-01 0.0000000000000000e+00  1.4706286318882933e-04 -9.8318611075826257e-01 0.0000000000000000e+00  -2.5597861122390597e-03 -8.9926606740518278e-01 0.0000000000000000e+00  2.8743412207461461e-03 -7.7243691465497133e-01 0.0000000000000000e+00  1.2255881851952477e-04 -9.9890638668600473e-01 0.0000000000000000e+00  2.6885703615164847e-04 -9.9876939710929158e-01 0.0000000000000000e+00  4.3120819037411051e-03 -4.1628081680161688e-01 0.0000000000000000e+00  -1.0030454764758390e-03 -9.1477098337116169e-01 0.0000000000000000e+00  -1.0081073909923299e-03 -9.8689813235620483e-01 0.0000000000000000e+00  -2.1126054974499320e-03 -8.9565493339313595e-01 0.0000000000000000e+00  2.2039927024385259e-03 -7.8440647744765646e-01 0.0000000000000000e+00  5.1426552143211679e-03 -7.4100887303056129e-01 0.0000000000000000e+00  -2.0492280233121996e-03 -9.0863742494634059e-01 0.0000000000000000e+00  -8.0618148938160772e-04 -8.8290378907343747e-01 0.0000000000000000e+00  1.1664881544014571e-03 -9.1611962055603635e-01 0.0000000000000000e+00  2.5784628911297292e-03 -8.4543659698230500e-01 0.0000000000000000e+00  7.2774590745799950e-04 -7.7692133238784089e-01 0.0000000000000000e+00  -3.7040590864724776e-03 -6.8619444942948760e-01 0.0000000000000000e+00  -4.1746643978942538e-03 -2.6626967256970768e-01 0.0000000000000000e+00  -3.9323927311576204e-03 -2.7864967471229318e-01 0.0000000000000000e+00  3.0753419084668665e-03 -4.9215758713015667e-01 0.0000000000000000e+00  7.7587204801829457e-04 -9.9230193206931716e-01 0.0000000000000000e+00  4.4861273484664288e-04 -9.7981581854054456e-01 0.0000000000000000e+00  2.4985685396721954e-04 -9.9656028680051989e-01 0.0000000000000000e+00  -2.5652234771555635e-03 -6.0071722813287043e-01 0.0000000000000000e+00  4.3118956124458853e-03 -1.7457714311928763e-01 0.0000000000000000e+00  -8.6461141649719908e-04 -6.1460191868457992e-01 0.0000000000000000e+00  5.8173290464014205e-04 -9.6010741199872029e-01 0.0000000000000000e+00  -2.5779168524222296e-03 -8.4756402298010980e-01 0.0000000000000000e+00  -2.3343319231658166e-03 -8.1479431861100904e-01 0.0000000000000000e+00  7.5998384750126935e-04 -7.7987973773560193e-01 0.0000000000000000e+00  -1.2561568512233223e-03 -8.3681991526841859e-01 0.0000000000000000e+00  1.4038696451930260e-03 -9.0319906889395041e-01 0.0000000000000000e+00  -2.4283732915427458e-03 -8.4163463981844855e-01 0.0000000000000000e+00  3.7810534083156377e-03 -7.7513000990604697e-01 0.0000000000000000e+00  -1.8076156936210272e-03 -8.5152449472994640e-01 0.0000000000000000e+00  -1.2347776752185124e-03 -9.2654447589109568e-01 0.0000000000000000e+00  2.0111815171239278e-04 -9.9915632994639103e-01 0.0000000000000000e+00  6.0973542801701086e-04 -9.8200750310917961e-01 0.0000000000000000e+00  3.6461334357162922e-04 -9.8191855046130216e-01 0.0000000000000000e+00  -2.3658102152640526e-03 -8.5728885016011069e-01 0.0000000000000000e+00  -2.5725553951357755e-03 -5.8106444786650913e-01 0.0000000000000000e+00  1.7708074740074853e-04 -9.9804861481908191e-01 0.0000000000000000e+00  1.5573941695390392e-04 -9.5810586252462060e-01 0.0000000000000000e+00  -1.9492481442479059e-03 -8.9858011470172183e-01 0.0000000000000000e+00  -1.5020932791474928e-03 -9.6430232635578261e-01 0.0000000000000000e+00  -5.0294644838333458e-04 -9.8496247702234518e-01 0.0000000000000000e+00  2.0532776689306809e-03 -9.0314713324920881e-01 0.0000000000000000e+00  7.4406933889609173e-04 -8.9353608395178530e-01 0.0000000000000000e+00  -3.5755790416149846e-03 -7.6803463333111233e-01 0.0000000000000000e+00  3.6372890542422653e-03 -3.9049143474404424e-01 0.0000000000000000e+00  5.7369282412678690e-03 -3.1357788939207143e-01 0.0000000000000000e+00  4.2619919227775416e-03 -5.7459955541004115e-01 0.0000000000000000e+00  -1.6273763724461432e-04 -9.9248717933946118e-01 0.0000000000000000e+00  6.2465572229708499e-04 -9.9352410919313106e-01 0.0000000000000000e+00  7.5452824999822088e-05 -7.5527997616655496e-01 0.0000000000000000e+00  -2.6192816584469560e-03 -4.2696105200616102e-01 0.0000000000000000e+00  -4.0929808208539642e-04 -4.7295255259213476e-01 0.0000000000000000e+00  -1.5376650836901873e-03 -7.3129234261193854e-01 0.0000000000000000e+00  2.6784433351783044e-03 -6.4169667027936239e-01 0.0000000000000000e+00  1.9071233821964795e-03 -6.7926834375490053e-01 0.0000000000000000e+00  1.0180565773692529e-03 -7.8491394673332593e-01 0.0000000000000000e+00  -5.0225020507830426e-04 -9.5097056402504632e-01 0.0000000000000000e+00  5.4362317186695819e-07 -1.0000490156395880e+00 0.0000000000000000e+00  1.2613320493959357e-03 -9.4260800757895957e-01 0.0000000000000000e+00  3.6957869496984652e-03 -6.6270914446915841e-01 0.0000000000000000e+00  -2.0455847162889063e-03 -9.5012197315876912e-01 0.0000000000000000e+00  9.5300642648553369e-04 -9.7124642806573847e-01 0.0000000000000000e+00  2.3964337169048652e-03 -8.0411081480926039e-01 0.0000000000000000e+00  -2.6630396961103697e-03 -7.0038115766553299e-01 0.0000000000000000e+00  2.2695209306587971e-03 -9.3695182688757628e-01 0.0000000000000000e+00  3.4724082057929553e-03 -4.8828553476723591e-01 0.0000000000000000e+00  -8.0384331114893826e-05 -9.9996672533968878e-01 0.0000000000000000e+00  2.4530104893588645e-05 -9.9875172580168980e-01 0.0000000000000000e+00  1.2753054364085248e-03 -6.6377511941144252e-01 0.0000000000000000e+00  -3.7006542070915360e-03 -4.8692103963889377e-01 0.0000000000000000e+00  -1.0644373358693615e-03 -9.6457580873697069e-01 0.0000000000000000e+00  -1.5128995167302262e-03 -7.9825861426817846e-01 0.0000000000000000e+00  4.2010603062155316e-03 -7.3076668724100569e-01 0.0000000000000000e+00  2.3257824784775893e-03 -7.0100428439617024e-01 0.0000000000000000e+00  1.1772156369741493e-03 -9.4308957058703613e-01 0.0000000000000000e+00  1.9204066032750683e-03 -9.3066684187723481e-01 0.0000000000000000e+00  3.2718158477461901e-03 -3.7877775763674443e-01 0.0000000000000000e+00  8.9879042080551457e-04 -8.8972001968251868e-01 0.0000000000000000e+00  2.6785260571975389e-03 -6.5816106003037034e-01 0.0000000000000000e+00  -4.3588400003961303e-03 -4.2075341021652657e-01 0.0000000000000000e+00  2.6798894459934622e-03 -5.9439669752434776e-01 0.0000000000000000e+00  4.3898541518391371e-03 -4.2751765587675078e-01 0.0000000000000000e+00  -4.1312687752775856e-03 -5.0116185624689980e-01 0.0000000000000000e+00  1.9795638618802514e-04 -9.9721815008882531e-01 0.0000000000000000e+00  -8.1286139632902321e-05 -9.9999936553171398e-01 0.0000000000000000e+00  -2.9429543441281125e-04 -9.2939208083407521e-01 0.0000000000000000e+00  -2.0753174563326038e-04 -9.9921966521983074e-01 0.0000000000000000e+00  -3.5213690845883328e-03 -7.4940249537369241e-01 0.0000000000000000e+00  -1.5492783566966040e-03 -8.8296517324998247e-01 0.0000000000000000e+00  8.9451896971071143e-04 -8.0856368675639978e-01 0.0000000000000000e+00  2.6593642461747447e-04 -2.8257118710586693e-01 0.0000000000000000e+00  3.0725927475111631e-03 -3.1372866873178046e-01 0.0000000000000000e+00  -1.0335271030338378e-03 -9.8523513531456797e-01 0.0000000000000000e+00  2.1921901679426981e-03 -7.1898420062870882e-01 0.0000000000000000e+00  3.1109012049853058e-03 -8.5283614348212256e-01 0.0000000000000000e+00  7.5158505822310595e-04 -9.1672110985792155e-01 0.0000000000000000e+00  2.9566641773090818e-03 -7.9087813057423118e-01 0.0000000000000000e+00  2.4451675670646711e-03 -6.4055599272930153e-01 0.0000000000000000e+00  -7.2087196481065291e-04 -9.2847111558793705e-01 0.0000000000000000e+00  -7.5322507722491716e-04 -9.7578148837544543e-01 0.0000000000000000e+00  -1.1940481481542142e-03 -9.8090374114019951e-01 0.0000000000000000e+00  -1.5377338442742472e-03 -9.5661567840122641e-01 0.0000000000000000e+00  3.2563293909551594e-03 -8.0876633982619639e-01 0.0000000000000000e+00  -2.1230139736680975e-03 -8.6935674618630387e-01 0.0000000000000000e+00  -2.7347639170155480e-03 -8.7239594507097351e-01 0.0000000000000000e+00  3.6689151106410341e-04 -8.0990436937570076e-01 0.0000000000000000e+00  -2.1399212443745652e-03 -5.2628411632515149e-01 0.0000000000000000e+00  -6.7763687837518738e-04 -5.2044043989615241e-01 0.0000000000000000e+00  -2.3524653258255035e-03 -6.1148435102166454e-01 0.0000000000000000e+00  2.5021808459680106e-03 -3.3143753186112562e-01 0.0000000000000000e+00  3.8826327739121813e-03 -4.1956607628093279e-01 0.0000000000000000e+00  1.3383621443013860e-04 -9.9136095415801329e-01 0.0000000000000000e+00  4.9408836925538061e-03 -6.6782863847431262e-02 0.0000000000000000e+00  -2.6910528992023079e-04 -6.7613428546599741e-02 0.0000000000000000e+00  1.2642642469884446e-04 -9.9980475451523798e-01 0.0000000000000000e+00  -5.2780570809256300e-03 -5.5653076676411306e-01 0.0000000000000000e+00  1.1726237975318576e-03 -5.5899756179096782e-01 0.0000000000000000e+00  -4.6998147568232951e-03 -5.9825126978350718e-01 0.0000000000000000e+00  -3.0948661525153076e-03 -7.1911437510681187e-01 0.0000000000000000e+00  -1.6029935341226736e-03 -9.3057757379856687e-01 0.0000000000000000e+00  2.7797287840675144e-04 -8.8744954827252887e-01 0.0000000000000000e+00  -6.0848304822647137e-04 -9.9010428332051426e-01 0.0000000000000000e+00  5.3619871259910634e-04 -9.9216298308917417e-01 0.0000000000000000e+00  -5.9857781490890716e-04 -9.6499130758834395e-01 0.0000000000000000e+00  -2.0805994477859080e-03 -9.2526922663525291e-01 0.0000000000000000e+00  -1.8297063315331495e-04 -9.9993854143467475e-01 0.0000000000000000e+00  1.6694124903696150e-04 -9.9275600127848385e-01 0.0000000000000000e+00  -1.4784094456642416e-03 -9.6478181196321777e-01 0.0000000000000000e+00  -5.6246359642231347e-04 -9.8969152616008527e-01 0.0000000000000000e+00  2.2701673126687815e-03 -7.3083564355270103e-01 0.0000000000000000e+00  -1.8868864927377160e-03 -9.2406206309875294e-01 0.0000000000000000e+00  5.1887665978383735e-03 -5.3663992639147584e-01 0.0000000000000000e+00  2.9494423531439135e-03 -1.9436058221648128e-01 0.0000000000000000e+00  2.4457027871556541e-03 -1.9349207776634555e-01 0.0000000000000000e+00  -2.2543703412447168e-04 -5.4282638150986340e-01 0.0000000000000000e+00  -1.6567059283305700e-03 -6.3525050083826895e-01 0.0000000000000000e+00  2.5228024187463616e-03 -7.3361492347510893e-01 0.0000000000000000e+00  6.5175597767186400e-04 -9.9379962963608282e-01 0.0000000000000000e+00  -4.8394260030380331e-04 -9.7291477562666207e-01 0.0000000000000000e+00  4.2035303231835464e-04 -9.9530390598052210e-01 0.0000000000000000e+00  -3.2075585012791841e-04 -6.2337673905186708e-01 0.0000000000000000e+00  -8.8302156111851049e-04 -9.5213267521129341e-01 0.0000000000000000e+00  1.0731487869518608e-03 -9.4788202714219039e-01 0.0000000000000000e+00  3.6436662889856586e-03 -8.1003553188071131e-01 0.0000000000000000e+00  -3.0248027496572183e-03 -7.2435043334281990e-01 0.0000000000000000e+00  -5.2806234357682946e-04 -8.0330394591634646e-01 0.0000000000000000e+00  1.9098205243799904e-03 -9.2101312595516305e-01 0.0000000000000000e+00  4.4605730117491180e-03 -2.1159825897861073e-01 0.0000000000000000e+00  -5.2581102409062705e-03 -2.9741904029526206e-01 0.0000000000000000e+00  5.0265662683535162e-04 -9.8001837104604905e-01 0.0000000000000000e+00  1.2186524284674705e-03 -9.7737390053431816e-01 0.0000000000000000e+00  -9.7861512581118304e-04 -8.9324614935548863e-01 0.0000000000000000e+00  5.7333084495403419e-04 -9.7708324493162446e-01 0.0000000000000000e+00  -3.3078413655096561e-04 -9.9503692986393710e-01 0.0000000000000000e+00  2.9805500796156181e-03 -4.5046726033360268e-01 0.0000000000000000e+00  2.5939685894945247e-03 -8.5692578406203823e-01 0.0000000000000000e+00  3.8530048101822478e-03 -8.9203179887955997e-01 0.0000000000000000e+00  -4.5054961174147146e-04 -7.3765291388585041e-01 0.0000000000000000e+00  -4.9471407141399304e-04 -9.9368872591759250e-01 0.0000000000000000e+00  1.1232685727751782e-03 -8.7184303425404752e-01 0.0000000000000000e+00  1.4199052889017003e-03 -9.2692979657947905e-01 0.0000000000000000e+00  1.2662502530780273e-03 -8.8846847851222366e-01 0.0000000000000000e+00  1.0845916052265592e-03 -9.2998560559651677e-01 0.0000000000000000e+00  -2.6429482831065165e-03 -8.5161070767457570e-01 0.0000000000000000e+00  2.5534254073311669e-04 -9.9924561873263174e-01 0.0000000000000000e+00  -3.2290830500980583e-04 -9.9329905470659741e-01 0.0000000000000000e+00  1.4181841190321620e-03 -6.9616307040162684e-01 0.0000000000000000e+00  3.6783017084974223e-03 -4.7282801606134528e-01 0.0000000000000000e+00  2.3944400528341792e-04 -8.7628204580634095e-01 0.0000000000000000e+00  2.2518677187378655e-03 -8.0166316392939319e-01 0.0000000000000000e+00  -6.5287300369759604e-04 -9.9018300819664795e-01 0.0000000000000000e+00  1.0057334885067437e-03 -9.7031678195283710e-01 0.0000000000000000e+00  -2.4498984581138306e-03 -9.2156770859490089e-01 0.0000000000000000e+00  -7.6077408808744584e-04 -9.8268474869693712e-01 0.0000000000000000e+00  8.4434759773421852e-04 -9.7274073058340238e-01 0.0000000000000000e+00  1.7486214642860043e-03 -4.5879788796334964e-01 0.0000000000000000e+00  1.6602991296756076e-03 -7.6294013017424156e-01 0.0000000000000000e+00  4.4714976792976646e-03 -8.0082968789444187e-01 0.0000000000000000e+00  3.3862623452399210e-04 -9.9684436538620114e-01 0.0000000000000000e+00  6.4791770412730987e-04 -9.6600892153802920e-01 0.0000000000000000e+00  -9.3173520997336112e-04 -9.6458093177333082e-01 0.0000000000000000e+00  2.2763641033291537e-03 -7.1271082876899561e-01 0.0000000000000000e+00  1.0852878788716325e-03 -8.8541146833425266e-01 0.0000000000000000e+00  -3.4988370335069519e-03 -7.9169192045479830e-01 0.0000000000000000e+00  -2.0811091083374755e-03 -8.1978254068788958e-01 0.0000000000000000e+00  -6.4493087123961988e-04 -9.8140047843274980e-01 0.0000000000000000e+00  1.4137537211948714e-03 -7.6329537448092777e-01 0.0000000000000000e+00  1.2765644269317478e-03 -9.6675615275984117e-01 0.0000000000000000e+00  2.1357601583582575e-04 -9.8757758401773810e-01 0.0000000000000000e+00  8.1939884772425087e-05 -9.9410191377443780e-01 0.0000000000000000e+00  2.2750514391948196e-03 -8.6459094713274121e-01 0.0000000000000000e+00  -1.2852053727463453e-03 -5.1495339475514501e-01 0.0000000000000000e+00  -5.3051244662711237e-05 -7.6640774355251373e-01 0.0000000000000000e+00  2.2915979562039279e-03 -8.6515504781794172e-01 0.0000000000000000e+00  1.9243894307091960e-04 -3.1431797656369609e-01 0.0000000000000000e+00  -5.6600860340980108e-03 -1.8811109735009357e-01 0.0000000000000000e+00  -2.1381521293403760e-03 -8.5140491462969925e-01 0.0000000000000000e+00  1.0624322141571385e-03 -9.3633528683805833e-01 0.0000000000000000e+00  -1.3850119090669244e-04 -8.8760765470604153e-01 0.0000000000000000e+00  -6.9049929421490658e-04 -9.0871106312014305e-01 0.0000000000000000e+00  3.5314818898845024e-03 -4.0362299517694494e-01 0.0000000000000000e+00  9.2469147301099675e-05 -9.9995664931895445e-01 0.0000000000000000e+00  7.6337384957234078e-04 -6.4138850443574824e-01 0.0000000000000000e+00  -3.1942151093293791e-03 -5.3200089672194029e-01 0.0000000000000000e+00  -3.3520284882418983e-03 -5.9423393901203048e-01 0.0000000000000000e+00  -2.3018928635971658e-03 -6.1327980747279431e-01 0.0000000000000000e+00  -4.8474515483858394e-03 -6.6225967561423760e-01 0.0000000000000000e+00  1.4575674008198980e-03 -8.6804044096168520e-01 0.0000000000000000e+00  -2.3439135528600108e-03 -8.7815688338174702e-01 0.0000000000000000e+00  -5.4567733502530746e-04 -9.3282911798612766e-01 0.0000000000000000e+00  -7.1387618255563945e-04 -9.7050064554742133e-01 0.0000000000000000e+00  1.0451849270671776e-03 -2.6319243282855870e-01 0.0000000000000000e+00  1.7178586133689833e-03 -3.5994953523742179e-01 0.0000000000000000e+00  -2.2172160502334781e-03 -3.2085262423363015e-01 0.0000000000000000e+00  7.2124257166433781e-04 -9.5173886788585560e-01 0.0000000000000000e+00  -1.7767014140947918e-04 -9.6329530757759174e-01 0.0000000000000000e+00  -2.8580896294773117e-03 -7.9499900131762069e-01 0.0000000000000000e+00  3.9323453118306206e