<?xml version="1.0"?>
<VTKFile type="UnstructuredGrid"  version="0.1"  >
<UnstructuredGrid>
<Piece  NumberOfPoints="1385" NumberOfCells="2640">
<Points>
<DataArray  type="Float64"  NumberOfComponents="3"  format="ascii">0 0 0  1 0 0  1 1 0  0 1 0  0.5 0 0  1 0.5 0  0.5 1 0  0 0.5 0  0.5 0.5 0  0 0.25 0  0.25 0 0  0.25 1 0  0 0.75 0  1 0.25 0  0.75 0 0  1 0.75 0  0.75 1 0  0.7083333333333333 0.2916666666666667 0  0.2916666666666666 0.7083333333333334 0  0.375 0.25 0  0.75 0.625 0  0.2569444444444444 0.4652777777777778 0  0.5366379310344828 0.7535919540229885 0  0.1875 0.1875 0  0.8125 0.8125 0  0.869047619047619 0.375 0  0.1450441919191919 0.6052714646464646 0  0.375 0.8690476190476191 0  0.5526960784313725 0.1825980392156862 0  0.8385416666666666 0.1614583333333334 0  0.1614583333333333 0.8385416666666667 0  0.6736111111111112 0.4652777777777778 0  0.1367521367521368 0.3477564102564102 0  0.6570970491253563 0.8648656830417855 0  0.5102479397556124 0.3386260301221938 0  0.3654513888888889 0.5737847222222222 0  0.6929750044954185 0.1362784921584263 0  0.388576102743835 0.411911725237599 0  0.6091269841269842 0.5942460317460317 0  0.875 0.6875 0  0.427278890279516 0.119889445139758 0  0.8544456845238095 0.5213913690476191 0  0.125 0 0  0 0.125 0  1 0.875 0  0.875 1 0  0.1280008648150532 0.4769292340226777 0  0.2695382451711197 0.3321750950221553 0  0.7031567235715964 0.7447810921428012 0  0.625 0 0  0.375 0 0  0.125 1 0  0.875 0 0  0 0.375 0  0 0.625 0  1 0.375 0  0.375 1 0  1 0.125 0  0 0.875 0  0.625 1 0  1 0.625 0  0.2979288363930608 0.1201429454643536 0  0.410919540229885 0.7484605911330049 0  0.5325041980395562 0.878905151526474 0  0.4831670727569156 0.6331060043826487 0  0.1735997378973042 0.7204747378973043 0  0.2534919507575758 0.5772372159090909 0  0.2633928571428572 0.8876488095238095 0  0.8199404761904761 0.2730654761904762 0  0.75830270586982 0.3919383189517417 0  0.5750282248382511 0.4237522353023667 0  0.6008360210023379 0.2794828358598495 0  0.08163442644334186 0.6821295860397322 0  0.08333333333333333 0.1875 0  0.2028380815996574 0.08844602719988583 0  0.2766521142611967 0.2325436572164097 0  0.90625 0.78125 0  0.890625 0.890625 0  0.7545696325008384 0.8973565441669461 0  0.5625 0.08086590340834317 0  0.09077380952380953 0.09077380952380952 0  0.4610923478694773 0.209034015149656 0  0.7542527598351648 0.5248380520595106 0  0.6459235536037465 0.3619913988405765 0  0.7560381768882634 0.20506142233852 0  0.07073252688172042 0.8125 0  0.0924753097241701 0.9078102849914793 0  0.9292674731182795 0.1875 0  0.9075246902758297 0.09218971500852073 0  0.8125 0.07073252688172045 0  0.2400955776842301 0.7869705776842302 0  0.9121050213379069 0.2781978201831695 0  0.7916878157143976 0.7239689078571988 0  0.9345238095238094 0.4375 0  0.4375 0.9345238095238095 0  0.3725616989755203 0.6651895248862173 0  0.06536271996350887 0.5625 0  0.9348362560379583 0.5625 0  0.456646798987055 0.8277247094351965 0  0.1875 0.9355758238725954 0  0.6169761231634859 0.6939779188977889 0  0.6226854751147515 0.7827911461419014 0  0.3305695598137626 0.7901697871282585 0  0.5865305325818898 0.5101085479043448 0  0.6622701297028378 0.2177663989757395 0  0.1354166666666667 0.2591702279202279 0  0 0.3125 0  0.2094429575680048 0.3936361846162499 0  0.836666296419157 0.607917407161686 0  0.6875 1 0  0.214261555450504 0.6492551722020035 0  0 0.4375 0  0.07731537126068377 0.40625 0  0.3427725432967068 0.4879566233699599 0  0.3550792513951871 0.3331953632609953 0  0.4462473953896857 0.2887834789342508 0  0.4747801464819794 0.417386052030127 0  0.8229836475148948 0.4443292349237342 0  0.7322605135514757 0.8199240278289671 0  0.6756431877205955 0.5468989748126787 0  0.1968419507215863 0.5194573482612496 0  0.3285590277777778 0.9345238095238095 0  0.8125 1 0  0.4198917601920009 0.5134893045331258 0  0.5232405503206691 0.2595791787880157 0  1 0.9375 0  0.1987510870015086 0.3025185951894431 0  0.5625 1 0  0.6005390654136388 0.9228110509230952 0  0.6411254848194414 0.07704872765442942 0  0.3357233162523242 0.1855113224530532 0  0.6730653396610877 0.6393887462324165 0  0.310966987234063 0.6240019765311626 0  0.7368737836204349 0.07457755202327881 0  0.6192316414418171 0.1485238406378594 0  0.5432429670607106 0.678552703844006 0  0.4754371679695679 0.7103946803120881 0  0.07501324890749672 0.3043839897335739 0  0.5358146975860403 0.5688321463205916 0  0.3115271739500156 0.3982137365971444 0  0.3625191397122174 0.0767854603650549 0  0.5024029442563831 0.1264128223758444 0  0.4375 0 0  0.4699946908887376 0.06379961173775725 0  0.9375 0.71875 0  0.9272105898044465 0.635671179608893 0  0.9375 1 0  0.6690971819568612 0.9331530898202766 0  0.1073454944778885 0.7499206387638554 0  0.8699082999280406 0.2232403652524313 0  0.5773118091863964 0.3548027349159383 0  0.1354166666666667 0.1428571428571428 0  0.3125 0 0  0.8241684193077341 0.9257452995055244 0  0.4352314948354036 0.3586940847489378 0  0.4351301473778832 0.5819726043539077 0  0.8073232928518163 0.3419398170341962 0  0.7775949246947366 0.1298519409204575 0  0.6875 0 0  0.7413513991851041 0.457933324954483 0  0.939453125 0.841796875 0  0.5630355154606987 0.8171875156478349 0  0.9345238095238095 0.3461466592368577 0  0.9375 0 0  1 0.0625 0  0.0625 1 0  0 0.9375 0  0.06552178593177167 0.4969053669623468 0  0.1424866619031703 0.4130277709291224 0  0.1275287182444726 0.5422946908002588 0  0.2637686595586339 0.06413888464529549 0  0.2524263535491086 0.1697437503243817 0  0.7367218397988525 0.6888573970660841 0  0.0625 0 0  0 0.0625 0  0.8463594539285995 0.7578283617857982 0  0.3128751192101563 0.2851997374369947 0  0.4015281788351144 0.1806421385113692 0  0.1910251795116588 0.4553332197174453 0  0.287797471442006 0.5222621440543902 0  0.3962628745986055 0.8097380085535307 0  0.3505895299554843 0.7304878890838692 0  0.5019151500495276 0.9356042615328103 0  0.9374389419410134 0.4999931039076005 0  0.3125 1 0  0.1875 1 0  1 0.5625 0  0.4375 1 0  1 0.3125 0  1 0.4375 0  0.8125 0 0  1 0.1875 0  0.5625 0 0  0.1875 0 0  0 0.1875 0  0 0.5625 0  0 0.6875 0  0 0.8125 0  1 0.6875 0  1 0.8125 0  0.8021696218581627 0.6612893947866073 0  0.06154922295426143 0.6239401126946708 0  0.9359375 0.9359375 0  0.4666158024849896 0.7691515918155014 0  0.2318201265217025 0.7064974250277525 0  0.1565954253579966 0.6635489312486841 0  0.1598132503680848 0.7787147500325552 0  0.3146529991605639 0.8510876378205265 0  0.1461873209418733 0.05982804528877814 0  0.06109554988524315 0.2446551776247686 0  0.8054950308560754 0.5564226538848541 0  0.470541749491976 0.8853316336952531 0  0.6948472567465137 0.4042308563372457 0  0.8802828472348889 0.4658893256343853 0  0.6788075634946739 0.7974194205806069 0  0.2155048659603867 0.2428201584940968 0  0.8131223143423806 0.2132171049028394 0  0.4330798005432235 0.6671274900735726 0  0.6015279126162613 0.2187368078743274 0  0.8061636571464289 0.8703766630361714 0  0.7008230445061776 0.3478568388444072 0  0.8638466246958771 0.3147095987735538 0  0.204801534004265 0.8789209409594009 0  0.2449006736431132 0.9424182882803838 0  0.7611268409371427 0.2643056884799992 0  0.7552800864046191 0.7678006649959446 0  0.5983639638906616 0.864113435029236 0  0.1956559506814437 0.577281203577426 0  0.3527670268164207 0.1320469097565204 0  0.7530364577483248 0.3262386077083089 0  0.4535919187979363 0.4690107087451527 0  0.8824869791666666 0.8336588541666666 0  0.8814453125 0.9451171875 0  0.5582987942628019 0.622421666543858 0  0.6817532446064828 0.6939001801354731 0  0.3830295138888889 0.9450968952922078 0  0.4140603937012541 0.05211333372716105 0  0.5535864501303013 0.3060591985391672 0  0.6560130086346878 0.2729726562211558 0  0.890203140221684 0.5948314305427268 0  0.7043857725999024 0.593980890020804 0  0.5105843922695152 0.8016828014338627 0  0.05365910753708378 0.7315110031682004 0  0.616904573672261 0.4621186633436136 0  0.5338511646455415 0.387875898899613 0  0.5231769258947843 0.4477682463140762 0  0.650302973237622 0.7370722302085519 0  0.3927483139621257 0.4662414504529014 0  0.8034595960585199 0.4972538342758211 0  0.7738337841682438 0.9496376207663251 0  0.7193737507158268 0.954685447650112 0  0.482525916480686 0.5528257169991676 0  0.2533501157346781 0.2809495420003238 0  0.3118487924482243 0.5702930126570319 0  0.6257598847669529 0.4104163315430518 0  0.1354166666666667 0.1955605158730158 0  0.04166666666666666 0.15625 0  0.3956448985530264 0.6174149462065157 0  0.8102897701818546 0.3938784238208349 0  0.2641154190013625 0.8344469561943118 0  0.642852220770013 0.5068794586563659 0  0.05271458179508221 0.355846947336007 0  0.7021551360070266 0.8921457280225779 0  0.5692125776683765 0.1328512638850284 0  0.5206162811937602 0.04865158770992991 0  0.6001838442201555 0.04540556991297563 0  0.2597716608242787 0.4118346398477178 0  0.4040584599473195 0.3179589136784675 0  0.1480337679295207 0.8941560631483065 0  0.1344356707112281 0.9466251177415842 0  0.7114696411829317 0.4983917389078826 0  0.7585704698442475 0.5751926345944629 0  0.2189131956390871 0.04022068508159698 0  0.2476935455192043 0.1123642267635843 0  0.185995005654517 0.1365524537205238 0  0.6223414373308711 0.643380839165121 0  0.5732602596637543 0.7190051747306219 0  0.268358222364537 0.6586246524467934 0  0.3265879848129173 0.2369791782191225 0  0.1267095595787346 0.7034787238999181 0  0.1115202922226038 0.6421997933884982 0  0.3128688392940203 0.07260997451790079 0  0.550724900485678 0.9253360991633187 0  0.7142608810459105 0.2384904702214873 0  0.7045869185243887 0.1871826897887429 0  0.890625 0.734375 0  0.953125 0.765625 0  0.2111812642821677 0.8286209446459138 0  0.9590293078204457 0.09375 0  0.953431269039847 0.1435719386408004 0  0.04097069217955424 0.90625 0  0.04656873096015299 0.8564280613591996 0  0.1078743037981226 0.8541621766048062 0  0.8921256962018773 0.1458378233951939 0  0.8521576979194619 0.1084496634207678 0  0.8655663982740958 0.05464346096571447 0  0.04005659640905543 0.09375 0  0.1001448316533417 0.04246776244228261 
[...]
<PointData  Vectors="f_8394-0-1"> 
<DataArray  type="Float64"  Name="f_8394-0-1"  NumberOfComponents="3" format="ascii">4.2153727385811149e-03 -1.7441313211248539e-02 0.0000000000000000e+00  1.4822340609545238e-03 -8.4227592088793346e-01 0.0000000000000000e+00  2.3977125938830250e-03 -9.1322220326918702e-01 0.0000000000000000e+00  1.1084324125547546e-05 -8.4550359089128047e-01 0.0000000000000000e+00  3.0509590672928300e-03 -4.8582220164946577e-01 0.0000000000000000e+00  -1.3658327980037299e-04 -9.9697969251437768e-01 0.0000000000000000e+00  9.9645070652853995e-05 -9.9785046704486724e-01 0.0000000000000000e+00  5.2756770410579135e-03 -4.8443008442281277e-01 0.0000000000000000e+00  -2.1262110350699082e-03 -8.3680662753835389e-01 0.0000000000000000e+00  1.6713547804920567e-03 -2.5579467949074053e-01 0.0000000000000000e+00  4.0910381807990892e-03 -2.5506036972435464e-01 0.0000000000000000e+00  -9.8261576648264737e-04 -9.4616655436491204e-01 0.0000000000000000e+00  1.0305652954153894e-03 -6.8649526327802735e-01 0.0000000000000000e+00  -1.7677242199162224e-03 -9.4634221636684801e-01 0.0000000000000000e+00  -1.6306427009425972e-03 -6.7472806771509697e-01 0.0000000000000000e+00  1.0612432838902341e-03 -9.8552560427563185e-01 0.0000000000000000e+00  6.4229671729841564e-04 -9.8381510312350806e-01 0.0000000000000000e+00  1.2892790280756294e-03 -8.4649622302112670e-01 0.0000000000000000e+00  3.3749237337425964e-03 -8.4580533205058051e-01 0.0000000000000000e+00  -2.2243804015306401e-03 -5.8030623453120378e-01 0.0000000000000000e+00  -7.7256019510468787e-04 -9.7989206721209254e-01 0.0000000000000000e+00  8.2357491415496753e-07 -6.5529070451630289e-01 0.0000000000000000e+00  1.0055695365130402e-03 -9.6382868288954215e-01 0.0000000000000000e+00  -4.1069259612450774e-03 -3.5813852353704495e-01 0.0000000000000000e+00  3.1887170956285127e-04 -9.9871521821328224e-01 0.0000000000000000e+00  8.5522053514225371e-04 -9.5090394014903057e-01 0.0000000000000000e+00  -1.5190906163948803e-03 -6.7519726566273897e-01 0.0000000000000000e+00  8.2561143229287204e-04 -9.5013819231178231e-01 0.0000000000000000e+00  3.0538598051805255e-03 -6.6903823301852650e-01 0.0000000000000000e+00  -1.7581033280644545e-03 -8.4686403782709851e-01 0.0000000000000000e+00  -2.2838164808520189e-03 -8.3794450752002336e-01 0.0000000000000000e+00  4.1082212065271517e-04 -9.1258485387987642e-01 0.0000000000000000e+00  -1.3611702930381997e-03 -4.7053652052649531e-01 0.0000000000000000e+00  1.9853272590997229e-04 -9.9911649083602982e-01 0.0000000000000000e+00  -4.3611464100496156e-03 -7.4611767262432871e-01 0.0000000000000000e+00  1.3170050192593541e-03 -8.1278954401057302e-01 0.0000000000000000e+00  -2.2452382247110103e-03 -7.3219577591440188e-01 0.0000000000000000e+00  -1.8155000284376666e-03 -7.1409719190614607e-01 0.0000000000000000e+00  -8.2415501885797771e-04 -9.3307929037614645e-01 0.0000000000000000e+00  -6.6008735459144319e-05 -9.9997177206872045e-01 0.0000000000000000e+00  4.4791521224248759e-03 -5.2881301194404351e-01 0.0000000000000000e+00  3.4709588610271069e-04 -9.8275657636163383e-01 0.0000000000000000e+00  4.5956034506897218e-03 -1.2717782996091942e-01 0.0000000000000000e+00  -1.2192961688713361e-04 -1.3074414319859115e-01 0.0000000000000000e+00  1.9236662164492380e-03 -9.5667560801563967e-01 0.0000000000000000e+00  1.1122939129557530e-03 -9.5552390624390360e-01 0.0000000000000000e+00  3.1409232045980784e-03 -5.7442342332688667e-01 0.0000000000000000e+00  -4.2343473459531267e-03 -5.5895929618382789e-01 0.0000000000000000e+00  -3.9034869992551902e-04 -9.9124590637610321e-01 0.0000000000000000e+00  1.8498271711316905e-03 -5.9102781082672218e-01 0.0000000000000000e+00  5.9384078294769105e-03 -3.6877687387131530e-01 0.0000000000000000e+00  -2.2977293373769303e-03 -9.0054196079725268e-01 0.0000000000000000e+00  3.4043126948477831e-03 -7.7033802928985917e-01 0.0000000000000000e+00  5.7660467871141208e-03 -3.7653258984140137e-01 0.0000000000000000e+00  1.6646176503634362e-03 -5.9052474743720129e-01 0.0000000000000000e+00  -1.2614264530330654e-03 -9.7910596157214069e-01 0.0000000000000000e+00  1.5202599585110999e-04 -9.8303626772737507e-01 0.0000000000000000e+00  -2.5573079677057020e-03 -8.9953021276174694e-01 0.0000000000000000e+00  2.8799095733734736e-03 -7.7228968096356987e-01 0.0000000000000000e+00  1.0926419367895956e-04 -9.9872573571066980e-01 0.0000000000000000e+00  2.6753520500089056e-04 -9.9875863659102748e-01 0.0000000000000000e+00  4.3088184979977184e-03 -4.1638814006484948e-01 0.0000000000000000e+00  -1.0077951119102924e-03 -9.1474798895764509e-01 0.0000000000000000e+00  -1.0133760129178437e-03 -9.8680834617729296e-01 0.0000000000000000e+00  -2.1104017465983643e-03 -8.9567617041752934e-01 0.0000000000000000e+00  2.2069718800831611e-03 -7.8435670706469252e-01 0.0000000000000000e+00  5.1460658996307918e-03 -7.4101560963094770e-01 0.0000000000000000e+00  -2.0463936411994066e-03 -9.0853715740502428e-01 0.0000000000000000e+00  -8.0243970568395773e-04 -8.8310695731680111e-01 0.0000000000000000e+00  1.1650763626512850e-03 -9.1627719560213750e-01 0.0000000000000000e+00  2.5819416269383666e-03 -8.4555748467461289e-01 0.0000000000000000e+00  7.2129701061957041e-04 -7.7709094925730360e-01 0.0000000000000000e+00  -3.7085810623394555e-03 -6.8611954705330258e-01 0.0000000000000000e+00  -4.1799700436865317e-03 -2.6627136607257640e-01 0.0000000000000000e+00  -3.9295646087091837e-03 -2.7870947119685974e-01 0.0000000000000000e+00  3.0749399296253060e-03 -4.9224423923170746e-01 0.0000000000000000e+00  7.8136268867812220e-04 -9.9220914549575390e-01 0.0000000000000000e+00  4.4691521846096371e-04 -9.7964514828972304e-01 0.0000000000000000e+00  2.5069133098371693e-04 -9.9642451066165760e-01 0.0000000000000000e+00  -2.5550462616074215e-03 -6.0092640857307134e-01 0.0000000000000000e+00  4.3147559026374717e-03 -1.7458865415550334e-01 0.0000000000000000e+00  -8.6286200498866816e-04 -6.1474414678954026e-01 0.0000000000000000e+00  5.8106722700429492e-04 -9.6019762344337090e-01 0.0000000000000000e+00  -2.5825277820672732e-03 -8.4771095263652396e-01 0.0000000000000000e+00  -2.3386410545944147e-03 -8.1501562220410306e-01 0.0000000000000000e+00  7.6103848514008643e-04 -7.7979034160877914e-01 0.0000000000000000e+00  -1.2565244594848202e-03 -8.3668752853599027e-01 0.0000000000000000e+00  1.4068250331187304e-03 -9.0344652620296539e-01 0.0000000000000000e+00  -2.4247087449163762e-03 -8.4191236678371872e-01 0.0000000000000000e+00  3.7792186651237625e-03 -7.7540552436890664e-01 0.0000000000000000e+00  -1.8094255628243218e-03 -8.5145438427292741e-01 0.0000000000000000e+00  -1.2302136050181822e-03 -9.2675199921462015e-01 0.0000000000000000e+00  2.0482044819328249e-04 -9.9913039017811656e-01 0.0000000000000000e+00  6.0947363154389977e-04 -9.8213364020327787e-01 0.0000000000000000e+00  3.5930331564637541e-04 -9.8179917192080290e-01 0.0000000000000000e+00  -2.3706657696187516e-03 -8.5728174514971356e-01 0.0000000000000000e+00  -2.5822443365460870e-03 -5.8102703186655502e-01 0.0000000000000000e+00  1.7608371283661661e-04 -9.9809872211684403e-01 0.0000000000000000e+00  1.5743959597086521e-04 -9.5804921409540167e-01 0.0000000000000000e+00  -1.9452792346063008e-03 -8.9845356040556001e-01 0.0000000000000000e+00  -1.5013602257979430e-03 -9.6430993289416833e-01 0.0000000000000000e+00  -5.0350238322066643e-04 -9.8491635219370655e-01 0.0000000000000000e+00  2.0561404570168529e-03 -9.0309050352799469e-01 0.0000000000000000e+00  7.4511812072214356e-04 -8.9362850297096330e-01 0.0000000000000000e+00  -3.5879142720197099e-03 -7.6823421470887132e-01 0.0000000000000000e+00  3.6387155717635400e-03 -3.9051560433837396e-01 0.0000000000000000e+00  5.7401166662763847e-03 -3.1352389023708627e-01 0.0000000000000000e+00  4.2644900781321771e-03 -5.7463743559931690e-01 0.0000000000000000e+00  -1.6125027267044345e-04 -9.9252770181681838e-01 0.0000000000000000e+00  6.2418148803367046e-04 -9.9332520659048140e-01 0.0000000000000000e+00  7.2400322165183661e-05 -7.5525322750085699e-01 0.0000000000000000e+00  -2.6275488477713015e-03 -4.2691887713834753e-01 0.0000000000000000e+00  -4.1025524384546985e-04 -4.7295253460454467e-01 0.0000000000000000e+00  -1.5357825720371809e-03 -7.3133889745459291e-01 0.0000000000000000e+00  2.6712893483487044e-03 -6.4179922600043970e-01 0.0000000000000000e+00  1.9214303217966189e-03 -6.7940178880888313e-01 0.0000000000000000e+00  1.0145411464413390e-03 -7.8501753860488799e-01 0.0000000000000000e+00  -5.0447832256248631e-04 -9.5110294824327757e-01 0.0000000000000000e+00  1.5182958296722227e-06 -9.9996860233676022e-01 0.0000000000000000e+00  1.2616865164355451e-03 -9.4268850347458943e-01 0.0000000000000000e+00  3.6943167446608083e-03 -6.6271106519935541e-01 0.0000000000000000e+00  -2.0387312357658116e-03 -9.5000323296519529e-01 0.0000000000000000e+00  9.4810022533124705e-04 -9.7099264599293023e-01 0.0000000000000000e+00  2.3935558469165771e-03 -8.0417323184802880e-01 0.0000000000000000e+00  -2.6667100349693218e-03 -7.0052516197903025e-01 0.0000000000000000e+00  2.2405513875324301e-03 -9.3665619761131202e-01 0.0000000000000000e+00  3.4795407950434717e-03 -4.8832339159530191e-01 0.0000000000000000e+00  -8.1232479426574379e-05 -9.9979002770567704e-01 0.0000000000000000e+00  2.4201847977411983e-05 -9.9863170693525127e-01 0.0000000000000000e+00  1.2767336334346124e-03 -6.6401023975363416e-01 0.0000000000000000e+00  -3.7002285280725022e-03 -4.8702422726493511e-01 0.0000000000000000e+00  -1.0665756962913164e-03 -9.6461154637478597e-01 0.0000000000000000e+00  -1.5020668075160781e-03 -7.9825338844362070e-01 0.0000000000000000e+00  4.2047595680504424e-03 -7.3101750501998464e-01 0.0000000000000000e+00  2.3236418944777570e-03 -7.0122306874700702e-01 0.0000000000000000e+00  1.1829573873363142e-03 -9.4310514030321246e-01 0.0000000000000000e+00  1.9253708266640801e-03 -9.3066064559629735e-01 0.0000000000000000e+00  3.2625586312456656e-03 -3.7878009255873157e-01 0.0000000000000000e+00  8.9959873540155447e-04 -8.8977323483644266e-01 0.0000000000000000e+00  2.6874045911257083e-03 -6.5821361392093281e-01 0.0000000000000000e+00  -4.3718307134068823e-03 -4.2088408812232248e-01 0.0000000000000000e+00  2.6961332295440885e-03 -5.9457583868627573e-01 0.0000000000000000e+00  4.3969892019765783e-03 -4.2769041205566971e-01 0.0000000000000000e+00  -4.1322313447127446e-03 -5.0132117084931216e-01 0.0000000000000000e+00  2.0282369978873865e-04 -9.9717026856072288e-01 0.0000000000000000e+00  -8.3180547949063266e-05 -1.0000098812568510e+00 0.0000000000000000e+00  -3.1550056972087792e-04 -9.2908632438425753e-01 0.0000000000000000e+00  -2.1354065559908708e-04 -9.9907541351993401e-01 0.0000000000000000e+00  -3.5219877735015448e-03 -7.4932426680197151e-01 0.0000000000000000e+00  -1.5473388153450784e-03 -8.8318590963711074e-01 0.0000000000000000e+00  8.8911782514022875e-04 -8.0870357523910430e-01 0.0000000000000000e+00  2.7336259777552274e-04 -2.8260212575504595e-01 0.0000000000000000e+00  3.0669414200002465e-03 -3.1387862568554276e-01 0.0000000000000000e+00  -1.0381402155142938e-03 -9.8506029633758541e-01 0.0000000000000000e+00  2.1923280486323415e-03 -7.1909103917957773e-01 0.0000000000000000e+00  3.1112044472833000e-03 -8.5288554446296194e-01 0.0000000000000000e+00  7.5485839528346976e-04 -9.1689185839253495e-01 0.0000000000000000e+00  2.9605617951934393e-03 -7.9111990136069066e-01 0.0000000000000000e+00  2.4428055487443479e-03 -6.4081609800944384e-01 0.0000000000000000e+00  -7.1965738930459405e-04 -9.2858715914108381e-01 0.0000000000000000e+00  -7.5717338160119496e-04 -9.7562131008891773e-01 0.0000000000000000e+00  -1.1899074371251039e-03 -9.8084230727363875e-01 0.0000000000000000e+00  -1.5366609886790505e-03 -9.5678596118494941e-01 0.0000000000000000e+00  3.2617103183950613e-03 -8.0906608949639680e-01 0.0000000000000000e+00  -2.1174395572826077e-03 -8.6964557563001454e-01 0.0000000000000000e+00  -2.7282943482370148e-03 -8.7221406326491879e-01 0.0000000000000000e+00  3.5633022761155566e-04 -8.0972963333743386e-01 0.0000000000000000e+00  -2.1570239630168686e-03 -5.2624026389965217e-01 0.0000000000000000e+00  -6.7107142839606393e-04 -5.2044173895228651e-01 0.0000000000000000e+00  -2.3513082428655019e-03 -6.1146300274231125e-01 0.0000000000000000e+00  2.5025633478284459e-03 -3.3153586306685612e-01 0.0000000000000000e+00  3.8793956203779234e-03 -4.1965667548537011e-01 0.0000000000000000e+00  1.3679159198859425e-04 -9.9135972150018059e-01 0.0000000000000000e+00  4.8887294475084692e-03 -6.6750981829658926e-02 0.0000000000000000e+00  -3.1985250610294636e-04 -6.7565515237625315e-02 0.0000000000000000e+00  1.3043455689554229e-04 -9.9974137630025695e-01 0.0000000000000000e+00  -5.2775125713555304e-03 -5.5661236312205742e-01 0.0000000000000000e+00  1.1752074578570693e-03 -5.5913109547312934e-01 0.0000000000000000e+00  -4.7000044295645166e-03 -5.9825148405197104e-01 0.0000000000000000e+00  -3.0986056833834930e-03 -7.1914747090311471e-01 0.0000000000000000e+00  -1.6094462758443062e-03 -9.3052025497799074e-01 0.0000000000000000e+00  2.7789093063057546e-04 -8.8742483100065006e-01 0.0000000000000000e+00  -6.0746694199509399e-04 -9.8998292198554039e-01 0.0000000000000000e+00  5.3611824561784760e-04 -9.9225815947108098e-01 0.0000000000000000e+00  -5.9651723775611121e-04 -9.6482714259334568e-01 0.0000000000000000e+00  -2.0790124659083031e-03 -9.2511529888697142e-01 0.0000000000000000e+00  -1.9014702475147479e-04 -9.9997558063032466e-01 0.0000000000000000e+00  1.7406426591071167e-04 -9.9260407695185704e-01 0.0000000000000000e+00  -1.4785246909166938e-03 -9.6495400453862568e-01 0.0000000000000000e+00  -5.6398888515751811e-04 -9.8979461243594169e-01 0.0000000000000000e+00  2.2803025233372291e-03 -7.3113226571929635e-01 0.0000000000000000e+00  -1.8851577971670253e-03 -9.2429722818200799e-01 0.0000000000000000e+00  5.1957894378823755e-03 -5.3683657464725876e-01 0.0000000000000000e+00  2.9307781253567894e-03 -1.9444309338154162e-01 0.0000000000000000e+00  2.4391845920997751e-03 -1.9344316363541417e-01 0.0000000000000000e+00  -2.3000464155277403e-04 -5.4270309559642582e-01 0.0000000000000000e+00  -1.6543110957560189e-03 -6.3515423620928979e-01 0.0000000000000000e+00  2.5289358558934216e-03 -7.3346059227468219e-01 0.0000000000000000e+00  6.4688231311649247e-04 -9.9374595128751042e-01 0.0000000000000000e+00  -4.9418414983238505e-04 -9.7274165062966811e-01 0.0000000000000000e+00  4.2138093988408620e-04 -9.9531798705122743e-01 0.0000000000000000e+00  -3.0621391034027501e-04 -6.2329791462233364e-01 0.0000000000000000e+00  -8.9122628477787680e-04 -9.5188454156361424e-01 0.0000000000000000e+00  1.0753672946376414e-03 -9.4785078851297944e-01 0.0000000000000000e+00  3.6486172917414295e-03 -8.0999975910734601e-01 0.0000000000000000e+00  -3.0234219233842285e-03 -7.2431144885710641e-01 0.0000000000000000e+00  -5.2669105617669798e-04 -8.0323566427873816e-01 0.0000000000000000e+00  1.9066056102612916e-03 -9.2094010130950976e-01 0.0000000000000000e+00  4.4590606826794207e-03 -2.1164653010765413e-01 0.0000000000000000e+00  -5.2668325059525289e-03 -2.9741098043537922e-01 0.0000000000000000e+00  5.0570267857596995e-04 -9.8008930741352485e-01 0.0000000000000000e+00  1.2211199978244824e-03 -9.7728030016331324e-01 0.0000000000000000e+00  -9.7518323687759145e-04 -8.9339338317839401e-01 0.0000000000000000e+00  5.7507403237899712e-04 -9.7720138085669495e-01 0.0000000000000000e+00  -3.2861316305088373e-04 -9.9498132432444208e-01 0.0000000000000000e+00  2.9819411848812649e-03 -4.5053412699391382e-01 0.0000000000000000e+00  2.5999201937643018e-03 -8.5715563016513918e-01 0.0000000000000000e+00  3.8608241417201761e-03 -8.9203475994496806e-01 0.0000000000000000e+00  -4.4155456368103613e-04 -7.3784424688492134e-01 0.0000000000000000e+00  -4.9826949717424185e-04 -9.9355862487817548e-01 0.0000000000000000e+00  1.1216033743957354e-03 -8.7200319758296607e-01 0.0000000000000000e+00  1.4248193855919637e-03 -9.2712947109254462e-01 0.0000000000000000e+00  1.2659615574973082e-03 -8.8837537508017439e-01 0.0000000000000000e+00  1.0839184082965803e-03 -9.2986884187212271e-01 0.0000000000000000e+00  -2.6411661675848908e-03 -8.5180859783821594e-01 0.0000000000000000e+00  2.5666096146664819e-04 -9.9919907993788448e-01 0.0000000000000000e+00  -3.2121073601842909e-04 -9.9321279975699128e-01 0.0000000000000000e+00  1.4209562473612436e-03 -6.9615735263726586e-01 0.0000000000000000e+00  3.6786119171701159e-03 -4.7295516714581665e-01 0.0000000000000000e+00  2.4321002507643463e-04 -8.7645483686553272e-01 0.0000000000000000e+00  2.2501981018572259e-03 -8.0175087591889183e-01 0.0000000000000000e+00  -6.4960147206297170e-04 -9.9005920803978142e-01 0.0000000000000000e+00  1.0135569867152361e-03 -9.7011273074703841e-01 0.0000000000000000e+00  -2.4487376957679219e-03 -9.2160376893984586e-01 0.0000000000000000e+00  -7.6140292955617639e-04 -9.8268977581454853e-01 0.0000000000000000e+00  8.4051535182272374e-04 -9.7261343269341083e-01 0.0000000000000000e+00  1.7405557124158255e-03 -4.5897058034733773e-01 0.0000000000000000e+00  1.6624668329992265e-03 -7.6309174442939609e-01 0.0000000000000000e+00  4.4757879648792409e-03 -8.0100845392939901e-01 0.0000000000000000e+00  3.3766190754644376e-04 -9.9688716843928937e-01 0.0000000000000000e+00  6.4859021216912005e-04 -9.6606063169572698e-01 0.0000000000000000e+00  -9.3237589107575403e-04 -9.6453310238477163e-01 0.0000000000000000e+00  2.2831830842589551e-03 -7.1263367092668439e-01 0.0000000000000000e+00  1.0892467825522473e-03 -8.8552149202144370e-01 0.0000000000000000e+00  -3.4993900288791957e-03 -7.9181326066640978e-01 0.0000000000000000e+00  -2.0819742867219659e-03 -8.1987944289067805e-01 0.0000000000000000e+00  -6.5011515062701102e-04 -9.8138152712280657e-01 0.0000000000000000e+00  1.4195002685859215e-03 -7.6336739530935283e-01 0.0000000000000000e+00  1.2769945146867689e-03 -9.6686190715764564e-01 0.0000000000000000e+00  2.1440309160081217e-04 -9.8739929358582323e-01 0.0000000000000000e+00  8.1181445044681277e-05 -9.9393085062864639e-01 0.0000000000000000e+00  2.2751696169405200e-03 -8.6464785987224868e-01 0.0000000000000000e+00  -1.2819954877780759e-03 -5.1502164327607070e-01 0.0000000000000000e+00  -5.6739995593581196e-05 -7.6642370174616348e-01 0.0000000000000000e+00  2.2926770781022121e-03 -8.6528175204006197e-01 0.0000000000000000e+00  2.0510710299541726e-04 -3.1431657255195450e-01 0.0000000000000000e+00  -5.6680994901827653e-03 -1.8805700483919355e-01 0.0000000000000000e+00  -2.1417536259368125e-03 -8.5142716400853202e-01 0.0000000000000000e+00  1.0688658358739556e-03 -9.3649261634172587e-01 0.0000000000000000e+00  -1.4124501328732775e-04 -8.8753134741163164e-01 0.0000000000000000e+00  -6.9101129121837412e-04 -9.0879564691095749e-01 0.0000000000000000e+00  3.5226599799385860e-03 -4.0360812769080806e-01 0.0000000000000000e+00  9.3494445323694109e-05 -9.9983358573033143e-01 0.0000000000000000e+00  7.7479322717896593e-04 -6.4159063672801253e-01 0.0000000000000000e+00  -3.1966577568163235e-03 -5.3219488670677551e-01 0.0000000000000000e+00  -3.3529031745758719e-03 -5.9444152468043998e-01 0.0000000000000000e+00  -2.3060925671874177e-03 -6.1327852368157032e-01 0.0000000000000000e+00  -4.8519933316798491e-03 -6.6236711080624244e-01 0.0000000000000000e+00  1.4595831759657424e-03 -8.6793229732986832e-01 0.0000000000000000e+00  -2.3354629355140100e-03 -8.7801928812023644e-01 0.0000000000000000e+00  -5.4641955349654658e-04 -9.3292709005439467e-01 0.0000000000000000e+00  -7.1571806615394751e-04 -9.7056559870590098e-01 0.0000000000000000e+00  1.0274581394109916e-03 -2.6328844567591891e-01 0.0000000000000000e+00  1.7133928736306203e-03 -3.6004653296911032e-01 0.0000000000000000e+00  -2.2291822229592029e-03 -3.2089684180945099e-01 0.0000000000000000e+00  7.1947015327616937e-04 -9.5176642704955450e-01 0.0000000000000000e+00  -1.7774423732923664e-04 -9.6329045557065518e-01 0.0000000000000000e+00  -2.8576499289566515e-03 -7.9499010381159052e-01 0.0000000000000000e+00  3.8815125281005391e-