<?xml version="1.0"?>
<VTKFile type="UnstructuredGrid"  version="0.1"  >
<UnstructuredGrid>
<Piece  NumberOfPoints="1385" NumberOfCells="2640">
<Points>
<DataArray  type="Float64"  NumberOfComponents="3"  format="ascii">0 0 0  1 0 0  1 1 0  0 1 0  0.5 0 0  1 0.5 0  0.5 1 0  0 0.5 0  0.5 0.5 0  0 0.25 0  0.25 0 0  0.25 1 0  0 0.75 0  1 0.25 0  0.75 0 0  1 0.75 0  0.75 1 0  0.7083333333333333 0.2916666666666667 0  0.2916666666666666 0.7083333333333334 0  0.375 0.25 0  0.75 0.625 0  0.2569444444444444 0.4652777777777778 0  0.5366379310344828 0.7535919540229885 0  0.1875 0.1875 0  0.8125 0.8125 0  0.869047619047619 0.375 0  0.1450441919191919 0.6052714646464646 0  0.375 0.8690476190476191 0  0.5526960784313725 0.1825980392156862 0  0.8385416666666666 0.1614583333333334 0  0.1614583333333333 0.8385416666666667 0  0.6736111111111112 0.4652777777777778 0  0.1367521367521368 0.3477564102564102 0  0.6570970491253563 0.8648656830417855 0  0.5102479397556124 0.3386260301221938 0  0.3654513888888889 0.5737847222222222 0  0.6929750044954185 0.1362784921584263 0  0.388576102743835 0.411911725237599 0  0.6091269841269842 0.5942460317460317 0  0.875 0.6875 0  0.427278890279516 0.119889445139758 0  0.8544456845238095 0.5213913690476191 0  0.125 0 0  0 0.125 0  1 0.875 0  0.875 1 0  0.1280008648150532 0.4769292340226777 0  0.2695382451711197 0.3321750950221553 0  0.7031567235715964 0.7447810921428012 0  0.625 0 0  0.375 0 0  0.125 1 0  0.875 0 0  0 0.375 0  0 0.625 0  1 0.375 0  0.375 1 0  1 0.125 0  0 0.875 0  0.625 1 0  1 0.625 0  0.2979288363930608 0.1201429454643536 0  0.410919540229885 0.7484605911330049 0  0.5325041980395562 0.878905151526474 0  0.4831670727569156 0.6331060043826487 0  0.1735997378973042 0.7204747378973043 0  0.2534919507575758 0.5772372159090909 0  0.2633928571428572 0.8876488095238095 0  0.8199404761904761 0.2730654761904762 0  0.75830270586982 0.3919383189517417 0  0.5750282248382511 0.4237522353023667 0  0.6008360210023379 0.2794828358598495 0  0.08163442644334186 0.6821295860397322 0  0.08333333333333333 0.1875 0  0.2028380815996574 0.08844602719988583 0  0.2766521142611967 0.2325436572164097 0  0.90625 0.78125 0  0.890625 0.890625 0  0.7545696325008384 0.8973565441669461 0  0.5625 0.08086590340834317 0  0.09077380952380953 0.09077380952380952 0  0.4610923478694773 0.209034015149656 0  0.7542527598351648 0.5248380520595106 0  0.6459235536037465 0.3619913988405765 0  0.7560381768882634 0.20506142233852 0  0.07073252688172042 0.8125 0  0.0924753097241701 0.9078102849914793 0  0.9292674731182795 0.1875 0  0.9075246902758297 0.09218971500852073 0  0.8125 0.07073252688172045 0  0.2400955776842301 0.7869705776842302 0  0.9121050213379069 0.2781978201831695 0  0.7916878157143976 0.7239689078571988 0  0.9345238095238094 0.4375 0  0.4375 0.9345238095238095 0  0.3725616989755203 0.6651895248862173 0  0.06536271996350887 0.5625 0  0.9348362560379583 0.5625 0  0.456646798987055 0.8277247094351965 0  0.1875 0.9355758238725954 0  0.6169761231634859 0.6939779188977889 0  0.6226854751147515 0.7827911461419014 0  0.3305695598137626 0.7901697871282585 0  0.5865305325818898 0.5101085479043448 0  0.6622701297028378 0.2177663989757395 0  0.1354166666666667 0.2591702279202279 0  0 0.3125 0  0.2094429575680048 0.3936361846162499 0  0.836666296419157 0.607917407161686 0  0.6875 1 0  0.214261555450504 0.6492551722020035 0  0 0.4375 0  0.07731537126068377 0.40625 0  0.3427725432967068 0.4879566233699599 0  0.3550792513951871 0.3331953632609953 0  0.4462473953896857 0.2887834789342508 0  0.4747801464819794 0.417386052030127 0  0.8229836475148948 0.4443292349237342 0  0.7322605135514757 0.8199240278289671 0  0.6756431877205955 0.5468989748126787 0  0.1968419507215863 0.5194573482612496 0  0.3285590277777778 0.9345238095238095 0  0.8125 1 0  0.4198917601920009 0.5134893045331258 0  0.5232405503206691 0.2595791787880157 0  1 0.9375 0  0.1987510870015086 0.3025185951894431 0  0.5625 1 0  0.6005390654136388 0.9228110509230952 0  0.6411254848194414 0.07704872765442942 0  0.3357233162523242 0.1855113224530532 0  0.6730653396610877 0.6393887462324165 0  0.310966987234063 0.6240019765311626 0  0.7368737836204349 0.07457755202327881 0  0.6192316414418171 0.1485238406378594 0  0.5432429670607106 0.678552703844006 0  0.4754371679695679 0.7103946803120881 0  0.07501324890749672 0.3043839897335739 0  0.5358146975860403 0.5688321463205916 0  0.3115271739500156 0.3982137365971444 0  0.3625191397122174 0.0767854603650549 0  0.5024029442563831 0.1264128223758444 0  0.4375 0 0  0.4699946908887376 0.06379961173775725 0  0.9375 0.71875 0  0.9272105898044465 0.635671179608893 0  0.9375 1 0  0.6690971819568612 0.9331530898202766 0  0.1073454944778885 0.7499206387638554 0  0.8699082999280406 0.2232403652524313 0  0.5773118091863964 0.3548027349159383 0  0.1354166666666667 0.1428571428571428 0  0.3125 0 0  0.8241684193077341 0.9257452995055244 0  0.4352314948354036 0.3586940847489378 0  0.4351301473778832 0.5819726043539077 0  0.8073232928518163 0.3419398170341962 0  0.7775949246947366 0.1298519409204575 0  0.6875 0 0  0.7413513991851041 0.457933324954483 0  0.939453125 0.841796875 0  0.5630355154606987 0.8171875156478349 0  0.9345238095238095 0.3461466592368577 0  0.9375 0 0  1 0.0625 0  0.0625 1 0  0 0.9375 0  0.06552178593177167 0.4969053669623468 0  0.1424866619031703 0.4130277709291224 0  0.1275287182444726 0.5422946908002588 0  0.2637686595586339 0.06413888464529549 0  0.2524263535491086 0.1697437503243817 0  0.7367218397988525 0.6888573970660841 0  0.0625 0 0  0 0.0625 0  0.8463594539285995 0.7578283617857982 0  0.3128751192101563 0.2851997374369947 0  0.4015281788351144 0.1806421385113692 0  0.1910251795116588 0.4553332197174453 0  0.287797471442006 0.5222621440543902 0  0.3962628745986055 0.8097380085535307 0  0.3505895299554843 0.7304878890838692 0  0.5019151500495276 0.9356042615328103 0  0.9374389419410134 0.4999931039076005 0  0.3125 1 0  0.1875 1 0  1 0.5625 0  0.4375 1 0  1 0.3125 0  1 0.4375 0  0.8125 0 0  1 0.1875 0  0.5625 0 0  0.1875 0 0  0 0.1875 0  0 0.5625 0  0 0.6875 0  0 0.8125 0  1 0.6875 0  1 0.8125 0  0.8021696218581627 0.6612893947866073 0  0.06154922295426143 0.6239401126946708 0  0.9359375 0.9359375 0  0.4666158024849896 0.7691515918155014 0  0.2318201265217025 0.7064974250277525 0  0.1565954253579966 0.6635489312486841 0  0.1598132503680848 0.7787147500325552 0  0.3146529991605639 0.8510876378205265 0  0.1461873209418733 0.05982804528877814 0  0.06109554988524315 0.2446551776247686 0  0.8054950308560754 0.5564226538848541 0  0.470541749491976 0.8853316336952531 0  0.6948472567465137 0.4042308563372457 0  0.8802828472348889 0.4658893256343853 0  0.6788075634946739 0.7974194205806069 0  0.2155048659603867 0.2428201584940968 0  0.8131223143423806 0.2132171049028394 0  0.4330798005432235 0.6671274900735726 0  0.6015279126162613 0.2187368078743274 0  0.8061636571464289 0.8703766630361714 0  0.7008230445061776 0.3478568388444072 0  0.8638466246958771 0.3147095987735538 0  0.204801534004265 0.8789209409594009 0  0.2449006736431132 0.9424182882803838 0  0.7611268409371427 0.2643056884799992 0  0.7552800864046191 0.7678006649959446 0  0.5983639638906616 0.864113435029236 0  0.1956559506814437 0.577281203577426 0  0.3527670268164207 0.1320469097565204 0  0.7530364577483248 0.3262386077083089 0  0.4535919187979363 0.4690107087451527 0  0.8824869791666666 0.8336588541666666 0  0.8814453125 0.9451171875 0  0.5582987942628019 0.622421666543858 0  0.6817532446064828 0.6939001801354731 0  0.3830295138888889 0.9450968952922078 0  0.4140603937012541 0.05211333372716105 0  0.5535864501303013 0.3060591985391672 0  0.6560130086346878 0.2729726562211558 0  0.890203140221684 0.5948314305427268 0  0.7043857725999024 0.593980890020804 0  0.5105843922695152 0.8016828014338627 0  0.05365910753708378 0.7315110031682004 0  0.616904573672261 0.4621186633436136 0  0.5338511646455415 0.387875898899613 0  0.5231769258947843 0.4477682463140762 0  0.650302973237622 0.7370722302085519 0  0.3927483139621257 0.4662414504529014 0  0.8034595960585199 0.4972538342758211 0  0.7738337841682438 0.9496376207663251 0  0.7193737507158268 0.954685447650112 0  0.482525916480686 0.5528257169991676 0  0.2533501157346781 0.2809495420003238 0  0.3118487924482243 0.5702930126570319 0  0.6257598847669529 0.4104163315430518 0  0.1354166666666667 0.1955605158730158 0  0.04166666666666666 0.15625 0  0.3956448985530264 0.6174149462065157 0  0.8102897701818546 0.3938784238208349 0  0.2641154190013625 0.8344469561943118 0  0.642852220770013 0.5068794586563659 0  0.05271458179508221 0.355846947336007 0  0.7021551360070266 0.8921457280225779 0  0.5692125776683765 0.1328512638850284 0  0.5206162811937602 0.04865158770992991 0  0.6001838442201555 0.04540556991297563 0  0.2597716608242787 0.4118346398477178 0  0.4040584599473195 0.3179589136784675 0  0.1480337679295207 0.8941560631483065 0  0.1344356707112281 0.9466251177415842 0  0.7114696411829317 0.4983917389078826 0  0.7585704698442475 0.5751926345944629 0  0.2189131956390871 0.04022068508159698 0  0.2476935455192043 0.1123642267635843 0  0.185995005654517 0.1365524537205238 0  0.6223414373308711 0.643380839165121 0  0.5732602596637543 0.7190051747306219 0  0.268358222364537 0.6586246524467934 0  0.3265879848129173 0.2369791782191225 0  0.1267095595787346 0.7034787238999181 0  0.1115202922226038 0.6421997933884982 0  0.3128688392940203 0.07260997451790079 0  0.550724900485678 0.9253360991633187 0  0.7142608810459105 0.2384904702214873 0  0.7045869185243887 0.1871826897887429 0  0.890625 0.734375 0  0.953125 0.765625 0  0.2111812642821677 0.8286209446459138 0  0.9590293078204457 0.09375 0  0.953431269039847 0.1435719386408004 0  0.04097069217955424 0.90625 0  0.04656873096015299 0.8564280613591996 0  0.1078743037981226 0.8541621766048062 0  0.8921256962018773 0.1458378233951939 0  0.8521576979194619 0.1084496634207678 0  0.8655663982740958 0.05464346096571447 0  0.04005659640905543 0.09375 0  0.1001448316533417 0.04246776244228261 
[...]
<PointData  Vectors="f_8394-0-0"> 
<DataArray  type="Float64"  Name="f_8394-0-0"  NumberOfComponents="3" format="ascii">-1.4011747070523085e-02 7.1399068768671498e-03 0.0000000000000000e+00  -8.4363132655053341e-01 1.4923865318158258e-03 0.0000000000000000e+00  -9.1257031739384775e-01 2.5595912664418846e-03 0.0000000000000000e+00  -8.3812384695627995e-01 -1.3472272668512385e-05 0.0000000000000000e+00  -4.8625892945398708e-01 2.9577545855438148e-03 0.0000000000000000e+00  -9.9640575280721932e-01 -5.6839765730572200e-05 0.0000000000000000e+00  -9.9788569377325154e-01 1.7366529156340584e-04 0.0000000000000000e+00  -4.8154460828646017e-01 5.5869056861255761e-03 0.0000000000000000e+00  -8.3848193870971088e-01 -1.7153445642067444e-03 0.0000000000000000e+00  -2.5440220811827685e-01 2.7896195945450453e-03 0.0000000000000000e+00  -2.5493063901297763e-01 3.6948733190512672e-03 0.0000000000000000e+00  -9.4685032592360341e-01 -1.0075364188297797e-03 0.0000000000000000e+00  -6.7453510388252702e-01 4.8784084343251807e-04 0.0000000000000000e+00  -9.4657679863025601e-01 -1.7280275397869582e-03 0.0000000000000000e+00  -6.8407335907682498e-01 -1.0231312769846371e-03 0.0000000000000000e+00  -9.8386068019909834e-01 1.0029542671795566e-03 0.0000000000000000e+00  -9.8538822058877129e-01 6.5647065525564763e-04 0.0000000000000000e+00  -8.4629012869960052e-01 1.4206696188294871e-03 0.0000000000000000e+00  -8.4408942227379469e-01 2.8369850632521398e-03 0.0000000000000000e+00  -5.8100060065388726e-01 -2.4660049580561560e-03 0.0000000000000000e+00  -9.7929088282841847e-01 -9.3564844626964350e-04 0.0000000000000000e+00  -6.6342469175885732e-01 -1.0487673460953806e-03 0.0000000000000000e+00  -9.6359778290982789e-01 5.7806421194714352e-04 0.0000000000000000e+00  -3.5860637909051751e-01 -4.1369106542136769e-03 0.0000000000000000e+00  -9.9861595307595685e-01 2.0982261437496597e-04 0.0000000000000000e+00  -9.4967067335821276e-01 1.0059236985310027e-03 0.0000000000000000e+00  -6.7615711031513748e-01 -1.6250169631872313e-03 0.0000000000000000e+00  -9.5083442956773023e-01 4.7773274754310535e-04 0.0000000000000000e+00  -6.7737709377840016e-01 3.1694259863778718e-03 0.0000000000000000e+00  -8.3611880449287712e-01 -1.5293612592553185e-03 0.0000000000000000e+00  -8.3837683354323178e-01 -2.4297568860523477e-03 0.0000000000000000e+00  -9.1264167724899625e-01 7.3056454304154528e-04 0.0000000000000000e+00  -4.6113431128667715e-01 -1.0867802310693120e-03 0.0000000000000000e+00  -9.9909311360868913e-01 2.0054267417135563e-04 0.0000000000000000e+00  -7.4576290800086287e-01 -3.6176900222099073e-03 0.0000000000000000e+00  -8.1366673476411011e-01 1.6267485690031058e-03 0.0000000000000000e+00  -7.3097499741819671e-01 -2.5564240498929525e-03 0.0000000000000000e+00  -7.1940881228390186e-01 -1.7604027074519437e-03 0.0000000000000000e+00  -9.3145872257196149e-01 -8.5319687109275399e-04 0.0000000000000000e+00  -9.9961338110271447e-01 -5.2242850408917851e-05 0.0000000000000000e+00  -5.2681535981854033e-01 4.1093828064748816e-03 0.0000000000000000e+00  -9.8269559792786110e-01 3.3162021649898316e-04 0.0000000000000000e+00  -1.3312178117738094e-01 4.5674076249307138e-03 0.0000000000000000e+00  -1.1459656785300031e-01 -7.9103193099586827e-04 0.0000000000000000e+00  -9.5393512716047646e-01 1.8171079559576864e-03 0.0000000000000000e+00  -9.5521218002262820e-01 1.1286187854731011e-03 0.0000000000000000e+00  -5.7688400959995090e-01 2.1164234795230663e-03 0.0000000000000000e+00  -5.7040528505985133e-01 -4.7393172937120476e-03 0.0000000000000000e+00  -9.9133584070478231e-01 -4.8629218431128773e-04 0.0000000000000000e+00  -5.9138564091257528e-01 5.7206888879358150e-04 0.0000000000000000e+00  -3.7289836115373598e-01 5.7922407662871767e-03 0.0000000000000000e+00  -8.9940365761220953e-01 -2.2840094514063880e-03 0.0000000000000000e+00  -7.7257101977984521e-01 3.3196480588157939e-03 0.0000000000000000e+00  -3.7285855436182880e-01 5.4668611055969374e-03 0.0000000000000000e+00  -5.9078061853488062e-01 2.3678906896599239e-03 0.0000000000000000e+00  -9.7963586998644270e-01 -1.2024347541096936e-03 0.0000000000000000e+00  -9.7947829670188802e-01 1.8866138712604695e-04 0.0000000000000000e+00  -9.0031415661306202e-01 -2.5116913998101120e-03 0.0000000000000000e+00  -7.6888565634245420e-01 2.6875828148207603e-03 0.0000000000000000e+00  -9.9893949955211836e-01 -5.6489138451316161e-05 0.0000000000000000e+00  -9.9807477047708137e-01 2.9426751054328903e-04 0.0000000000000000e+00  -4.0069307045656255e-01 5.2418878646291467e-03 0.0000000000000000e+00  -9.1474855763762319e-01 -1.3240328242706267e-03 0.0000000000000000e+00  -9.8674996717536978e-01 -9.9253643608965270e-04 0.0000000000000000e+00  -8.9502929542678633e-01 -2.1117634759790782e-03 0.0000000000000000e+00  -7.8516957014825672e-01 2.1686749949689776e-03 0.0000000000000000e+00  -7.4532703704241166e-01 4.7462364670267099e-03 0.0000000000000000e+00  -9.1338565732380128e-01 -2.2410751259251960e-03 0.0000000000000000e+00  -8.8304280948081115e-01 -1.3450685893660053e-03 0.0000000000000000e+00  -9.1304592015983232e-01 1.5645330890748654e-03 0.0000000000000000e+00  -8.4111217531107296e-01 2.5170319087192833e-03 0.0000000000000000e+00  -7.7648975259155284e-01 8.9074447508263876e-04 0.0000000000000000e+00  -6.9219530363028403e-01 -3.5036310047660280e-03 0.0000000000000000e+00  -2.5974805358042452e-01 -5.0481971028293049e-03 0.0000000000000000e+00  -2.7858146870132239e-01 -4.0942717377202009e-03 0.0000000000000000e+00  -4.9419819209857752e-01 3.6393945780407444e-03 0.0000000000000000e+00  -9.9412302619545356e-01 3.7982156111382448e-04 0.0000000000000000e+00  -9.7768773652315388e-01 7.3789216809444708e-04 0.0000000000000000e+00  -9.9708062439768164e-01 1.6283965462637884e-04 0.0000000000000000e+00  -5.9248594459943504e-01 -2.8278321045732135e-03 0.0000000000000000e+00  -1.9062648180324118e-01 3.6803346295255571e-03 0.0000000000000000e+00  -6.1489183771951716e-01 -1.9081529676736042e-03 0.0000000000000000e+00  -9.6028311802620236e-01 7.4320526700066836e-04 0.0000000000000000e+00  -8.4154222883599605e-01 -2.6686734861380845e-03 0.0000000000000000e+00  -8.2398709437576290e-01 -2.5538275796604115e-03 0.0000000000000000e+00  -7.7753779443529503e-01 -2.7095697760426418e-04 0.0000000000000000e+00  -8.4667385199494605e-01 -1.5628948565361046e-03 0.0000000000000000e+00  -9.0197137218013923e-01 1.5383033150958014e-03 0.0000000000000000e+00  -8.3537084501374026e-01 -2.1676889336514904e-03 0.0000000000000000e+00  -7.7682728361478270e-01 3.6737900702537019e-03 0.0000000000000000e+00  -8.5271170869806889e-01 -1.2416165462006967e-03 0.0000000000000000e+00  -9.2611947050872478e-01 -1.7169379865052126e-03 0.0000000000000000e+00  -9.9880569028497845e-01 1.3648483790512644e-04 0.0000000000000000e+00  -9.8143343903286862e-01 5.4977041022950812e-04 0.0000000000000000e+00  -9.8255662151564638e-01 3.1485277033259764e-04 0.0000000000000000e+00  -8.5933633164140233e-01 -1.8721573936784641e-03 0.0000000000000000e+00  -5.8167457292982905e-01 -3.0698294794795356e-03 0.0000000000000000e+00  -9.9748726182910075e-01 7.3721567528418908e-06 0.0000000000000000e+00  -9.6171111141275389e-01 3.4514042451916360e-04 0.0000000000000000e+00  -8.9902056776120343e-01 -2.2050946759903656e-03 0.0000000000000000e+00  -9.6557127481689309e-01 -1.0453953528567483e-03 0.0000000000000000e+00  -9.8447078249310449e-01 -5.7587155648988753e-04 0.0000000000000000e+00  -9.0452442441010894e-01 1.9283555389577600e-03 0.0000000000000000e+00  -8.9377594699534746e-01 1.1778848854683832e-03 0.0000000000000000e+00  -7.6646387208830569e-01 -3.2534949599986041e-03 0.0000000000000000e+00  -3.8714484572372354e-01 2.7566921437376934e-03 0.0000000000000000e+00  -3.1043035897912991e-01 5.8031579113210496e-03 0.0000000000000000e+00  -5.7140533897977519e-01 4.3312355172347716e-03 0.0000000000000000e+00  -9.9091181383307725e-01 -2.0382599091028908e-04 0.0000000000000000e+00  -9.9366330181253659e-01 6.0345196230326970e-04 0.0000000000000000e+00  -7.5528417381660762e-01 -3.2153088478765503e-04 0.0000000000000000e+00  -4.1635130388586000e-01 -2.9053091122479557e-03 0.0000000000000000e+00  -4.5998040959183961e-01 6.0524945668799512e-05 0.0000000000000000e+00  -7.3279109001046250e-01 -1.4686067399191649e-03 0.0000000000000000e+00  -6.3641259849722964e-01 3.4681688644544184e-03 0.0000000000000000e+00  -6.7667440419710223e-01 9.2752767617987342e-04 0.0000000000000000e+00  -7.8506255979152728e-01 1.7033992603662229e-03 0.0000000000000000e+00  -9.5089466439486647e-01 -9.1284529487845045e-04 0.0000000000000000e+00  -9.9995206955672322e-01 -2.4471401272097015e-05 0.0000000000000000e+00  -9.4118477435071113e-01 1.3009637260494311e-03 0.0000000000000000e+00  -6.5398976658061792e-01 4.7406403057473206e-03 0.0000000000000000e+00  -9.5235457854264249e-01 -2.0476256077079369e-03 0.0000000000000000e+00  -9.7334460474584739e-01 9.4888369861045874e-04 0.0000000000000000e+00  -8.1006483483495739e-01 3.0443523380694337e-03 0.0000000000000000e+00  -7.0031100986988482e-01 -1.8393004317417971e-03 0.0000000000000000e+00  -9.3336450471735155e-01 2.3102858239328894e-03 0.0000000000000000e+00  -4.8805201466185244e-01 3.4356727194359560e-03 0.0000000000000000e+00  -1.0000062019618770e+00 -4.5073277103790943e-05 0.0000000000000000e+00  -9.9946725477957454e-01 8.7209633771068162e-05 0.0000000000000000e+00  -6.6258251218316044e-01 1.8619810830176053e-03 0.0000000000000000e+00  -5.0505423872663890e-01 -6.3223442117072426e-03 0.0000000000000000e+00  -9.6786564310143464e-01 -1.1876215612795643e-03 0.0000000000000000e+00  -7.9886248766052781e-01 -1.2193858411789771e-03 0.0000000000000000e+00  -7.3069783051354098e-01 3.8042488910688399e-03 0.0000000000000000e+00  -7.0012751129482043e-01 9.8441694970208271e-04 0.0000000000000000e+00  -9.4327862084182090e-01 1.2097059561380075e-03 0.0000000000000000e+00  -9.3151246009538702e-01 1.8484802484057816e-03 0.0000000000000000e+00  -3.6650108859269309e-01 2.8670023888815385e-03 0.0000000000000000e+00  -8.9783388491829408e-01 6.5888631580296453e-04 0.0000000000000000e+00  -6.5870457572180563e-01 3.2771070447286665e-03 0.0000000000000000e+00  -4.1867603341725879e-01 -3.6455026676591729e-03 0.0000000000000000e+00  -5.9505858084141039e-01 3.2381610863855097e-03 0.0000000000000000e+00  -4.3209209354500916e-01 4.3969887736810542e-03 0.0000000000000000e+00  -5.0678274968717152e-01 -4.3291434490868030e-03 0.0000000000000000e+00  -9.9657524373169093e-01 2.2079558060450477e-04 0.0000000000000000e+00  -9.9949956327791556e-01 -5.4347660722209312e-05 0.0000000000000000e+00  -9.3605069751953363e-01 -1.2212462574471845e-04 0.0000000000000000e+00  -9.9919916609076764e-01 -2.0181313152006081e-04 0.0000000000000000e+00  -7.5272399740516416e-01 -2.6487759970414138e-03 0.0000000000000000e+00  -8.8684076680736978e-01 -1.4498563005826137e-03 0.0000000000000000e+00  -8.0994600212708068e-01 1.0505039740455347e-03 0.0000000000000000e+00  -2.7149341242016323e-01 -2.1850219195901355e-04 0.0000000000000000e+00  -3.1426525077882866e-01 2.8329414642175002e-03 0.0000000000000000e+00  -9.8199288182131372e-01 -8.5767697208632976e-04 0.0000000000000000e+00  -7.1973973503226663e-01 1.6479650747013019e-03 0.0000000000000000e+00  -8.5449477221253867e-01 2.7567579657721275e-03 0.0000000000000000e+00  -9.1655363400568368e-01 9.3601087348216261e-04 0.0000000000000000e+00  -7.9328686404498461e-01 3.1147700598465056e-03 0.0000000000000000e+00  -6.3992562959708565e-01 2.9492722487333648e-03 0.0000000000000000e+00  -9.2817537151086693e-01 -1.2847691172007680e-03 0.0000000000000000e+00  -9.7538617666596172e-01 -7.5490370584996302e-04 0.0000000000000000e+00  -9.8062982744630178e-01 -1.1964816317013849e-03 0.0000000000000000e+00  -9.5521274797199196e-01 -1.7659696660936586e-03 0.0000000000000000e+00  -8.1005818977010779e-01 3.2731627828522791e-03 0.0000000000000000e+00  -8.6945094080788010e-01 -2.1467523295244928e-03 0.0000000000000000e+00  -8.7165097618410670e-01 -2.8471283694592175e-03 0.0000000000000000e+00  -8.0062368851539190e-01 -3.3218407297885832e-04 0.0000000000000000e+00  -5.2746550753277122e-01 -1.4282397165327684e-03 0.0000000000000000e+00  -5.3237384697105228e-01 -1.0465596579670722e-03 0.0000000000000000e+00  -6.2658041242823936e-01 -3.1106598967796085e-03 0.0000000000000000e+00  -3.1689671007925924e-01 1.9790065490772491e-03 0.0000000000000000e+00  -4.1949808942013167e-01 3.4699345317788510e-03 0.0000000000000000e+00  -9.9115444665330288e-01 2.3757554506143030e-04 0.0000000000000000e+00  -7.1012301787209214e-02 5.2875757451562727e-03 0.0000000000000000e+00  -5.3857190784063931e-02 -1.5457030166812560e-03 0.0000000000000000e+00  -9.9942200608566878e-01 2.0349364966409933e-04 0.0000000000000000e+00  -5.5763608977078016e-01 -4.7963563871724624e-03 0.0000000000000000e+00  -5.5859314331368537e-01 1.1837452810408711e-03 0.0000000000000000e+00  -5.9517713697696450e-01 -4.8687340374454768e-03 0.0000000000000000e+00  -7.2434603427143629e-01 -3.6076679797553968e-03 0.0000000000000000e+00  -9.3209415725032307e-01 -1.1015293210644983e-03 0.0000000000000000e+00  -8.8716532593043329e-01 -1.3999938188824501e-04 0.0000000000000000e+00  -9.9135622768302745e-01 -5.2199931217514206e-04 0.0000000000000000e+00  -9.9181923384895210e-01 5.2148678629881928e-04 0.0000000000000000e+00  -9.6558843921370818e-01 -6.0476977051937553e-04 0.0000000000000000e+00  -9.2454572437099836e-01 -2.1815622622967101e-03 0.0000000000000000e+00  -9.9939402816186729e-01 -3.3217485387870838e-05 0.0000000000000000e+00  -9.9018921639774982e-01 2.2276492453812037e-04 0.0000000000000000e+00  -9.6497860127748913e-01 -1.4324806696707770e-03 0.0000000000000000e+00  -9.9069791719522382e-01 -5.9245756705519903e-04 0.0000000000000000e+00  -7.2976056380531962e-01 2.4221414994270987e-03 0.0000000000000000e+00  -9.2398630005879490e-01 -1.8070597617434458e-03 0.0000000000000000e+00  -5.4009658199980559e-01 5.0757916160169003e-03 0.0000000000000000e+00  -1.9457779121740248e-01 2.5093916547280970e-03 0.0000000000000000e+00  -1.9417782279838827e-01 2.5410645698621254e-03 0.0000000000000000e+00  -5.2363153941133012e-01 -3.2436089781030797e-04 0.0000000000000000e+00  -6.2900050034223109e-01 -1.8223465091814495e-03 0.0000000000000000e+00  -7.2709026403610622e-01 2.6080090336030107e-03 0.0000000000000000e+00  -9.9280245556358804e-01 6.6024783985169089e-04 0.0000000000000000e+00  -9.6771108265710692e-01 -6.0648465646773175e-04 0.0000000000000000e+00  -9.9446240170433109e-01 4.7710351611385260e-04 0.0000000000000000e+00  -6.4024093647341696e-01 -8.8313990554696881e-04 0.0000000000000000e+00  -9.5189553349280298e-01 -5.1122400444991722e-04 0.0000000000000000e+00  -9.4783425972569102e-01 1.1108916863136753e-03 0.0000000000000000e+00  -8.1132743932364748e-01 2.9119057877093901e-03 0.0000000000000000e+00  -7.3391625644016423e-01 -3.9529382786603617e-03 0.0000000000000000e+00  -8.1280419611480237e-01 -5.1298849183245565e-04 0.0000000000000000e+00  -9.2208939143874480e-01 1.8242769980504336e-03 0.0000000000000000e+00  -2.1190100646253127e-01 5.4329157923495297e-03 0.0000000000000000e+00  -2.9339099668191482e-01 -4.2563747494371307e-03 0.0000000000000000e+00  -9.8007000081008244e-01 5.4642617597094878e-04 0.0000000000000000e+00  -9.7903102325707181e-01 1.1768511114295110e-03 0.0000000000000000e+00  -8.8653557636996716e-01 -1.4013848863116962e-03 0.0000000000000000e+00  -9.7678259281496094e-01 5.1439174699299817e-04 0.0000000000000000e+00  -9.9478841362825865e-01 -4.7502731068907456e-04 0.0000000000000000e+00  -4.5056507913290705e-01 3.3931266985851444e-03 0.0000000000000000e+00  -8.5938585408310741e-01 2.1579264199109716e-03 0.0000000000000000e+00  -8.9621448026993067e-01 3.4456564842312298e-03 0.0000000000000000e+00  -7.2550125103788776e-01 -4.0697209730092276e-04 0.0000000000000000e+00  -9.9341560192880263e-01 -3.9711847125664668e-04 0.0000000000000000e+00  -8.7135357934219138e-01 1.4358249906634146e-03 0.0000000000000000e+00  -9.2658515336954350e-01 1.0394936744714534e-03 0.0000000000000000e+00  -8.8166032807731642e-01 1.0587181990057704e-03 0.0000000000000000e+00  -9.3123272936082202e-01 1.3547294418610467e-03 0.0000000000000000e+00  -8.5046067677807691e-01 -2.6220385521160683e-03 0.0000000000000000e+00  -9.9909192601233976e-01 1.4711140129708422e-04 0.0000000000000000e+00  -9.9477761864511360e-01 -2.5867265382323312e-04 0.0000000000000000e+00  -7.0484780422311011e-01 1.6078978257980658e-03 0.0000000000000000e+00  -4.6924898194092851e-01 4.8383981659471664e-03 0.0000000000000000e+00  -8.7696135826848298e-01 -6.8712722329833387e-04 0.0000000000000000e+00  -8.0191796709983487e-01 2.6435970314069857e-03 0.0000000000000000e+00  -9.8764366807277626e-01 -7.0529783191564110e-04 0.0000000000000000e+00  -9.6663788737183831e-01 1.0253322889729743e-03 0.0000000000000000e+00  -9.2245820574241688e-01 -2.5076125666561588e-03 0.0000000000000000e+00  -9.7888685428866773e-01 -6.7231397449377117e-04 0.0000000000000000e+00  -9.7349455640816895e-01 9.8342755251940028e-04 0.0000000000000000e+00  -4.6024691262512807e-01 2.6563683608327726e-03 0.0000000000000000e+00  -7.6354860457104734e-01 1.6120600401690471e-03 0.0000000000000000e+00  -8.0621678393256291e-01 3.4431251526055862e-03 0.0000000000000000e+00  -9.9661119951791122e-01 4.1194037705538644e-04 0.0000000000000000e+00  -9.6611549816238129e-01 8.9255999905026029e-04 0.0000000000000000e+00  -9.6681003386658981e-01 -1.1158187960354782e-03 0.0000000000000000e+00  -7.1221309614620520e-01 1.7177309296372567e-03 0.0000000000000000e+00  -8.8559583946787823e-01 1.2395524013001369e-03 0.0000000000000000e+00  -7.9187556399331238e-01 -3.6649448157605180e-03 0.0000000000000000e+00  -8.2116068416925292e-01 -2.6410436298064527e-03 0.0000000000000000e+00  -9.8179892159395243e-01 -6.6696200960003615e-04 0.0000000000000000e+00  -7.5159705363184404e-01 1.5131133351370292e-03 0.0000000000000000e+00  -9.6236191574076524e-01 1.4450696627703319e-03 0.0000000000000000e+00  -9.8919823628857362e-01 1.7026495915539730e-04 0.0000000000000000e+00  -9.9543192713494744e-01 1.3097809134976490e-04 0.0000000000000000e+00  -8.6040309131474912e-01 2.0015520200084153e-03 0.0000000000000000e+00  -5.0566969079483515e-01 -7.5224195710593689e-04 0.0000000000000000e+00  -7.6608526202110616e-01 -5.7005896697870373e-04 0.0000000000000000e+00  -8.6255203876554443e-01 2.9093906811681058e-03 0.0000000000000000e+00  -3.1618717183225065e-01 -1.0534007417425384e-03 0.0000000000000000e+00  -1.9354588013626639e-01 -4.2596492762825844e-03 0.0000000000000000e+00  -8.4397766400824392e-01 -2.1500809569822144e-03 0.0000000000000000e+00  -9.3657597604345810e-01 8.6756606686884397e-04 0.0000000000000000e+00  -8.8750872927500579e-01 -6.6914368177828365e-04 0.0000000000000000e+00  -9.0889739653273516e-01 -8.6960689857340512e-04 0.0000000000000000e+00  -4.0569236199612674e-01 3.9008156738555427e-03 0.0000000000000000e+00  -9.9971540641715984e-01 1.6573082356852176e-04 0.0000000000000000e+00  -6.4846315340340865e-01 1.6176058809611593e-03 0.0000000000000000e+00  -5.3302175862501899e-01 -3.1386999311999592e-03 0.0000000000000000e+00  -6.0299052682029597e-01 -2.6406048238208912e-03 0.0000000000000000e+00  -6.1555594219338927e-01 -2.3651748953730234e-03 0.0000000000000000e+00  -6.5515407698459860e-01 -4.3565043450089491e-03 0.0000000000000000e+00  -8.6844647136756181e-01 1.4118989687186279e-03 0.0000000000000000e+00  -8.8375670665996109e-01 -2.3121903413895195e-03 0.0000000000000000e+00  -9.3239740912639202e-01 -8.4105062975110834e-04 0.0000000000000000e+00  -9.7009421966204989e-01 -6.5443198162504213e-04 0.0000000000000000e+00  -2.5518433305167992e-01 1.5437177044655276e-03 0.0000000000000000e+00  -3.4939450138058620e-01 1.8908523269941092e-03 0.0000000000000000e+00  -3.1267662769035692e-01 -1.7215518809231556e-03 0.0000000000000000e+00  -9.5703894558163449e-01 8.1945350521184235e-04 0.0000000000000000e+00  -9.5929800051599623e-01 -2.2643345899756029e-04 0.0000000000000000e+00  -7.9711552183950529e-01 -3.0837532540803902e-03 0.0000000000000000e+00  -5.4123634