<?xml version="1.0"?>
<VTKFile type="UnstructuredGrid"  version="0.1"  >
<UnstructuredGrid>
<Piece  NumberOfPoints="1385" NumberOfCells="2640">
<Points>
<DataArray  type="Float64"  NumberOfComponents="3"  format="ascii">0 0 0  1 0 0  1 1 0  0 1 0  0.5 0 0  1 0.5 0  0.5 1 0  0 0.5 0  0.5 0.5 0  0 0.25 0  0.25 0 0  0.25 1 0  0 0.75 0  1 0.25 0  0.75 0 0  1 0.75 0  0.75 1 0  0.7083333333333333 0.2916666666666667 0  0.2916666666666666 0.7083333333333334 0  0.375 0.25 0  0.75 0.625 0  0.2569444444444444 0.4652777777777778 0  0.5366379310344828 0.7535919540229885 0  0.1875 0.1875 0  0.8125 0.8125 0  0.869047619047619 0.375 0  0.1450441919191919 0.6052714646464646 0  0.375 0.8690476190476191 0  0.5526960784313725 0.1825980392156862 0  0.8385416666666666 0.1614583333333334 0  0.1614583333333333 0.8385416666666667 0  0.6736111111111112 0.4652777777777778 0  0.1367521367521368 0.3477564102564102 0  0.6570970491253563 0.8648656830417855 0  0.5102479397556124 0.3386260301221938 0  0.3654513888888889 0.5737847222222222 0  0.6929750044954185 0.1362784921584263 0  0.388576102743835 0.411911725237599 0  0.6091269841269842 0.5942460317460317 0  0.875 0.6875 0  0.427278890279516 0.119889445139758 0  0.8544456845238095 0.5213913690476191 0  0.125 0 0  0 0.125 0  1 0.875 0  0.875 1 0  0.1280008648150532 0.4769292340226777 0  0.2695382451711197 0.3321750950221553 0  0.7031567235715964 0.7447810921428012 0  0.625 0 0  0.375 0 0  0.125 1 0  0.875 0 0  0 0.375 0  0 0.625 0  1 0.375 0  0.375 1 0  1 0.125 0  0 0.875 0  0.625 1 0  1 0.625 0  0.2979288363930608 0.1201429454643536 0  0.410919540229885 0.7484605911330049 0  0.5325041980395562 0.878905151526474 0  0.4831670727569156 0.6331060043826487 0  0.1735997378973042 0.7204747378973043 0  0.2534919507575758 0.5772372159090909 0  0.2633928571428572 0.8876488095238095 0  0.8199404761904761 0.2730654761904762 0  0.75830270586982 0.3919383189517417 0  0.5750282248382511 0.4237522353023667 0  0.6008360210023379 0.2794828358598495 0  0.08163442644334186 0.6821295860397322 0  0.08333333333333333 0.1875 0  0.2028380815996574 0.08844602719988583 0  0.2766521142611967 0.2325436572164097 0  0.90625 0.78125 0  0.890625 0.890625 0  0.7545696325008384 0.8973565441669461 0  0.5625 0.08086590340834317 0  0.09077380952380953 0.09077380952380952 0  0.4610923478694773 0.209034015149656 0  0.7542527598351648 0.5248380520595106 0  0.6459235536037465 0.3619913988405765 0  0.7560381768882634 0.20506142233852 0  0.07073252688172042 0.8125 0  0.0924753097241701 0.9078102849914793 0  0.9292674731182795 0.1875 0  0.9075246902758297 0.09218971500852073 0  0.8125 0.07073252688172045 0  0.2400955776842301 0.7869705776842302 0  0.9121050213379069 0.2781978201831695 0  0.7916878157143976 0.7239689078571988 0  0.9345238095238094 0.4375 0  0.4375 0.9345238095238095 0  0.3725616989755203 0.6651895248862173 0  0.06536271996350887 0.5625 0  0.9348362560379583 0.5625 0  0.456646798987055 0.8277247094351965 0  0.1875 0.9355758238725954 0  0.6169761231634859 0.6939779188977889 0  0.6226854751147515 0.7827911461419014 0  0.3305695598137626 0.7901697871282585 0  0.5865305325818898 0.5101085479043448 0  0.6622701297028378 0.2177663989757395 0  0.1354166666666667 0.2591702279202279 0  0 0.3125 0  0.2094429575680048 0.3936361846162499 0  0.836666296419157 0.607917407161686 0  0.6875 1 0  0.214261555450504 0.6492551722020035 0  0 0.4375 0  0.07731537126068377 0.40625 0  0.3427725432967068 0.4879566233699599 0  0.3550792513951871 0.3331953632609953 0  0.4462473953896857 0.2887834789342508 0  0.4747801464819794 0.417386052030127 0  0.8229836475148948 0.4443292349237342 0  0.7322605135514757 0.8199240278289671 0  0.6756431877205955 0.5468989748126787 0  0.1968419507215863 0.5194573482612496 0  0.3285590277777778 0.9345238095238095 0  0.8125 1 0  0.4198917601920009 0.5134893045331258 0  0.5232405503206691 0.2595791787880157 0  1 0.9375 0  0.1987510870015086 0.3025185951894431 0  0.5625 1 0  0.6005390654136388 0.9228110509230952 0  0.6411254848194414 0.07704872765442942 0  0.3357233162523242 0.1855113224530532 0  0.6730653396610877 0.6393887462324165 0  0.310966987234063 0.6240019765311626 0  0.7368737836204349 0.07457755202327881 0  0.6192316414418171 0.1485238406378594 0  0.5432429670607106 0.678552703844006 0  0.4754371679695679 0.7103946803120881 0  0.07501324890749672 0.3043839897335739 0  0.5358146975860403 0.5688321463205916 0  0.3115271739500156 0.3982137365971444 0  0.3625191397122174 0.0767854603650549 0  0.5024029442563831 0.1264128223758444 0  0.4375 0 0  0.4699946908887376 0.06379961173775725 0  0.9375 0.71875 0  0.9272105898044465 0.635671179608893 0  0.9375 1 0  0.6690971819568612 0.9331530898202766 0  0.1073454944778885 0.7499206387638554 0  0.8699082999280406 0.2232403652524313 0  0.5773118091863964 0.3548027349159383 0  0.1354166666666667 0.1428571428571428 0  0.3125 0 0  0.8241684193077341 0.9257452995055244 0  0.4352314948354036 0.3586940847489378 0  0.4351301473778832 0.5819726043539077 0  0.8073232928518163 0.3419398170341962 0  0.7775949246947366 0.1298519409204575 0  0.6875 0 0  0.7413513991851041 0.457933324954483 0  0.939453125 0.841796875 0  0.5630355154606987 0.8171875156478349 0  0.9345238095238095 0.3461466592368577 0  0.9375 0 0  1 0.0625 0  0.0625 1 0  0 0.9375 0  0.06552178593177167 0.4969053669623468 0  0.1424866619031703 0.4130277709291224 0  0.1275287182444726 0.5422946908002588 0  0.2637686595586339 0.06413888464529549 0  0.2524263535491086 0.1697437503243817 0  0.7367218397988525 0.6888573970660841 0  0.0625 0 0  0 0.0625 0  0.8463594539285995 0.7578283617857982 0  0.3128751192101563 0.2851997374369947 0  0.4015281788351144 0.1806421385113692 0  0.1910251795116588 0.4553332197174453 0  0.287797471442006 0.5222621440543902 0  0.3962628745986055 0.8097380085535307 0  0.3505895299554843 0.7304878890838692 0  0.5019151500495276 0.9356042615328103 0  0.9374389419410134 0.4999931039076005 0  0.3125 1 0  0.1875 1 0  1 0.5625 0  0.4375 1 0  1 0.3125 0  1 0.4375 0  0.8125 0 0  1 0.1875 0  0.5625 0 0  0.1875 0 0  0 0.1875 0  0 0.5625 0  0 0.6875 0  0 0.8125 0  1 0.6875 0  1 0.8125 0  0.8021696218581627 0.6612893947866073 0  0.06154922295426143 0.6239401126946708 0  0.9359375 0.9359375 0  0.4666158024849896 0.7691515918155014 0  0.2318201265217025 0.7064974250277525 0  0.1565954253579966 0.6635489312486841 0  0.1598132503680848 0.7787147500325552 0  0.3146529991605639 0.8510876378205265 0  0.1461873209418733 0.05982804528877814 0  0.06109554988524315 0.2446551776247686 0  0.8054950308560754 0.5564226538848541 0  0.470541749491976 0.8853316336952531 0  0.6948472567465137 0.4042308563372457 0  0.8802828472348889 0.4658893256343853 0  0.6788075634946739 0.7974194205806069 0  0.2155048659603867 0.2428201584940968 0  0.8131223143423806 0.2132171049028394 0  0.4330798005432235 0.6671274900735726 0  0.6015279126162613 0.2187368078743274 0  0.8061636571464289 0.8703766630361714 0  0.7008230445061776 0.3478568388444072 0  0.8638466246958771 0.3147095987735538 0  0.204801534004265 0.8789209409594009 0  0.2449006736431132 0.9424182882803838 0  0.7611268409371427 0.2643056884799992 0  0.7552800864046191 0.7678006649959446 0  0.5983639638906616 0.864113435029236 0  0.1956559506814437 0.577281203577426 0  0.3527670268164207 0.1320469097565204 0  0.7530364577483248 0.3262386077083089 0  0.4535919187979363 0.4690107087451527 0  0.8824869791666666 0.8336588541666666 0  0.8814453125 0.9451171875 0  0.5582987942628019 0.622421666543858 0  0.6817532446064828 0.6939001801354731 0  0.3830295138888889 0.9450968952922078 0  0.4140603937012541 0.05211333372716105 0  0.5535864501303013 0.3060591985391672 0  0.6560130086346878 0.2729726562211558 0  0.890203140221684 0.5948314305427268 0  0.7043857725999024 0.593980890020804 0  0.5105843922695152 0.8016828014338627 0  0.05365910753708378 0.7315110031682004 0  0.616904573672261 0.4621186633436136 0  0.5338511646455415 0.387875898899613 0  0.5231769258947843 0.4477682463140762 0  0.650302973237622 0.7370722302085519 0  0.3927483139621257 0.4662414504529014 0  0.8034595960585199 0.4972538342758211 0  0.7738337841682438 0.9496376207663251 0  0.7193737507158268 0.954685447650112 0  0.482525916480686 0.5528257169991676 0  0.2533501157346781 0.2809495420003238 0  0.3118487924482243 0.5702930126570319 0  0.6257598847669529 0.4104163315430518 0  0.1354166666666667 0.1955605158730158 0  0.04166666666666666 0.15625 0  0.3956448985530264 0.6174149462065157 0  0.8102897701818546 0.3938784238208349 0  0.2641154190013625 0.8344469561943118 0  0.642852220770013 0.5068794586563659 0  0.05271458179508221 0.355846947336007 0  0.7021551360070266 0.8921457280225779 0  0.5692125776683765 0.1328512638850284 0  0.5206162811937602 0.04865158770992991 0  0.6001838442201555 0.04540556991297563 0  0.2597716608242787 0.4118346398477178 0  0.4040584599473195 0.3179589136784675 0  0.1480337679295207 0.8941560631483065 0  0.1344356707112281 0.9466251177415842 0  0.7114696411829317 0.4983917389078826 0  0.7585704698442475 0.5751926345944629 0  0.2189131956390871 0.04022068508159698 0  0.2476935455192043 0.1123642267635843 0  0.185995005654517 0.1365524537205238 0  0.6223414373308711 0.643380839165121 0  0.5732602596637543 0.7190051747306219 0  0.268358222364537 0.6586246524467934 0  0.3265879848129173 0.2369791782191225 0  0.1267095595787346 0.7034787238999181 0  0.1115202922226038 0.6421997933884982 0  0.3128688392940203 0.07260997451790079 0  0.550724900485678 0.9253360991633187 0  0.7142608810459105 0.2384904702214873 0  0.7045869185243887 0.1871826897887429 0  0.890625 0.734375 0  0.953125 0.765625 0  0.2111812642821677 0.8286209446459138 0  0.9590293078204457 0.09375 0  0.953431269039847 0.1435719386408004 0  0.04097069217955424 0.90625 0  0.04656873096015299 0.8564280613591996 0  0.1078743037981226 0.8541621766048062 0  0.8921256962018773 0.1458378233951939 0  0.8521576979194619 0.1084496634207678 0  0.8655663982740958 0.05464346096571447 0  0.04005659640905543 0.09375 0  0.1001448316533417 0.04246776244228261 
[...]
<PointData  Vectors="f_8394-0-0"> 
<DataArray  type="Float64"  Name="f_8394-0-0"  NumberOfComponents="3" format="ascii">-1.4011805173873633e-02 7.1397627728994866e-03 0.0000000000000000e+00  -8.4368354708102944e-01 1.4918299550856773e-03 0.0000000000000000e+00  -9.1266432283223198e-01 2.5572647754938745e-03 0.0000000000000000e+00  -8.3801322518211874e-01 -1.3431819840461524e-05 0.0000000000000000e+00  -4.8627413159796218e-01 2.9572421285558037e-03 0.0000000000000000e+00  -9.9645807556108024e-01 -5.6969634087522536e-05 0.0000000000000000e+00  -9.9785325512105350e-01 1.7337539980922574e-04 0.0000000000000000e+00  -4.8147763793609366e-01 5.5854682923684451e-03 0.0000000000000000e+00  -8.3845417709941694e-01 -1.7150953136024216e-03 0.0000000000000000e+00  -2.5436659028014991e-01 2.7901488391496310e-03 0.0000000000000000e+00  -2.5493605660993840e-01 3.6951047599801841e-03 0.0000000000000000e+00  -9.4677337326779520e-01 -1.0075842672336854e-03 0.0000000000000000e+00  -6.7444307078218468e-01 4.8738243334895195e-04 0.0000000000000000e+00  -9.4662517709858229e-01 -1.7279448851930113e-03 0.0000000000000000e+00  -6.8410384109971689e-01 -1.0234108960190721e-03 0.0000000000000000e+00  -9.8392951654783389e-01 1.0034983915425677e-03 0.0000000000000000e+00  -9.8541459102948858e-01 6.5684916892294609e-04 0.0000000000000000e+00  -8.4629552651230866e-01 1.4203102108985982e-03 0.0000000000000000e+00  -8.4402591699399643e-01 2.8363444299070451e-03 0.0000000000000000e+00  -5.8098280586616580e-01 -2.4655402592904663e-03 0.0000000000000000e+00  -9.7929718425036960e-01 -9.3553225338466328e-04 0.0000000000000000e+00  -6.6337609023654820e-01 -1.0486273581537531e-03 0.0000000000000000e+00  -9.6356726477952170e-01 5.7780384287478559e-04 0.0000000000000000e+00  -3.5858843748155622e-01 -4.1361732905655924e-03 0.0000000000000000e+00  -9.9864322606551303e-01 2.0964715523130728e-04 0.0000000000000000e+00  -9.4969576420826429e-01 1.0057880396660279e-03 0.0000000000000000e+00  -6.7608904125084468e-01 -1.6248554719099917e-03 0.0000000000000000e+00  -9.5077711930415632e-01 4.7763048271347308e-04 0.0000000000000000e+00  -6.7737559149759830e-01 3.1686961385353207e-03 0.0000000000000000e+00  -8.3614797355460391e-01 -1.5292228301996558e-03 0.0000000000000000e+00  -8.3829321691703074e-01 -2.4295287773438423e-03 0.0000000000000000e+00  -9.1263583585911645e-01 7.3032073004475340e-04 0.0000000000000000e+00  -4.6109298330087223e-01 -1.0864374674375843e-03 0.0000000000000000e+00  -9.9908841480750210e-01 2.0069803657901675e-04 0.0000000000000000e+00  -7.4574704195499630e-01 -3.6170656344080010e-03 0.0000000000000000e+00  -8.1361808640822542e-01 1.6263186405747476e-03 0.0000000000000000e+00  -7.3099161000778246e-01 -2.5560302517720901e-03 0.0000000000000000e+00  -7.1937525192833340e-01 -1.7601136740367854e-03 0.0000000000000000e+00  -9.3144167803444344e-01 -8.5310502546664946e-04 0.0000000000000000e+00  -9.9964693909410141e-01 -5.2122498425011266e-05 0.0000000000000000e+00  -5.2681276731257121e-01 4.1087266404930545e-03 0.0000000000000000e+00  -9.8271887314479689e-01 3.3151536605475346e-04 0.0000000000000000e+00  -1.3312510075745287e-01 4.5684030023204480e-03 0.0000000000000000e+00  -1.1458332548829243e-01 -7.8959351957559598e-04 0.0000000000000000e+00  -9.5401794189962996e-01 1.8177370932622172e-03 0.0000000000000000e+00  -9.5527257505359575e-01 1.1292830654896502e-03 0.0000000000000000e+00  -5.7682474071210232e-01 2.1162335433261570e-03 0.0000000000000000e+00  -5.7037088251110424e-01 -4.7383882336040073e-03 0.0000000000000000e+00  -9.9133644156553447e-01 -4.8630917999792356e-04 0.0000000000000000e+00  -5.9140692638346881e-01 5.7226007254209288e-04 0.0000000000000000e+00  -3.7290823854286037e-01 5.7913186751497592e-03 0.0000000000000000e+00  -8.9930832756978984e-01 -2.2839808153394259e-03 0.0000000000000000e+00  -7.7261245011538771e-01 3.3188728378436005e-03 0.0000000000000000e+00  -3.7280721963444835e-01 5.4660936811179173e-03 0.0000000000000000e+00  -5.9069840424205133e-01 2.3681192025646336e-03 0.0000000000000000e+00  -9.7968461454655098e-01 -1.2022361124235381e-03 0.0000000000000000e+00  -9.7942256546618922e-01 1.8817235776938726e-04 0.0000000000000000e+00  -9.0036505037907066e-01 -2.5116056353458038e-03 0.0000000000000000e+00  -7.6878309466551664e-01 2.6867721177338405e-03 0.0000000000000000e+00  -9.9893471203022588e-01 -5.5908662043602686e-05 0.0000000000000000e+00  -9.9813315663625368e-01 2.9441846874783684e-04 0.0000000000000000e+00  -4.0068775842413362e-01 5.2409361397849491e-03 0.0000000000000000e+00  -9.1469951019037365e-01 -1.3237237346809261e-03 0.0000000000000000e+00  -9.8672092112439913e-01 -9.9226676968167116e-04 0.0000000000000000e+00  -8.9499384205234467e-01 -2.1113971251358610e-03 0.0000000000000000e+00  -7.8509206731162762e-01 2.1682033974449455e-03 0.0000000000000000e+00  -7.4526772249394957e-01 4.7452504695703057e-03 0.0000000000000000e+00  -9.1331268198315940e-01 -2.2410537644199091e-03 0.0000000000000000e+00  -8.8306446072119649e-01 -1.3448786575342986e-03 0.0000000000000000e+00  -9.1305445629471349e-01 1.5641881634729238e-03 0.0000000000000000e+00  -8.4109643462882488e-01 2.5164399959344413e-03 0.0000000000000000e+00  -7.7648449589616853e-01 8.9048504761335412e-04 0.0000000000000000e+00  -6.9211410891911562e-01 -3.5030547439482418e-03 0.0000000000000000e+00  -2.5972674414210634e-01 -5.0467287132271721e-03 0.0000000000000000e+00  -2.7857924474114359e-01 -4.0932574489031537e-03 0.0000000000000000e+00  -4.9417491109716305e-01 3.6385939558025715e-03 0.0000000000000000e+00  -9.9417006126145524e-01 3.7959055371300510e-04 0.0000000000000000e+00  -9.7774170745159728e-01 7.3794004686461307e-04 0.0000000000000000e+00  -9.9710029500795272e-01 1.6291148506930586e-04 0.0000000000000000e+00  -5.9249977717193048e-01 -2.8272753368673853e-03 0.0000000000000000e+00  -1.9061717870002387e-01 3.6796792541659157e-03 0.0000000000000000e+00  -6.1488393333998281e-01 -1.9077218224262671e-03 0.0000000000000000e+00  -9.6028871860223686e-01 7.4306097819021311e-04 0.0000000000000000e+00  -8.4153849822044335e-01 -2.6682080364687222e-03 0.0000000000000000e+00  -8.2400263697375642e-01 -2.5533612253544891e-03 0.0000000000000000e+00  -7.7744485751695003e-01 -2.7123368971793127e-04 0.0000000000000000e+00  -8.4657836040100809e-01 -1.5631685786767074e-03 0.0000000000000000e+00  -9.0200895764355216e-01 1.5376426733594850e-03 0.0000000000000000e+00  -8.3541294358561513e-01 -2.1679421710097957e-03 0.0000000000000000e+00  -7.7685868793364299e-01 3.6731022349267839e-03 0.0000000000000000e+00  -8.5263928317568494e-01 -1.2413625202446488e-03 0.0000000000000000e+00  -9.2615296966721783e-01 -1.7169269788360197e-03 0.0000000000000000e+00  -9.9882329746240828e-01 1.3624068684464641e-04 0.0000000000000000e+00  -9.8147005052127645e-01 5.4957597117304136e-04 0.0000000000000000e+00  -9.8251218370962889e-01 3.1490394464090939e-04 0.0000000000000000e+00  -8.5928551286207322e-01 -1.8718503889552096e-03 0.0000000000000000e+00  -5.8160607192838965e-01 -3.0690764641984059e-03 0.0000000000000000e+00  -9.9752767052634950e-01 7.3860267905678789e-06 0.0000000000000000e+00  -9.6166728486796549e-01 3.4504440122273827e-04 0.0000000000000000e+00  -8.9893720691673806e-01 -2.2051079664147932e-03 0.0000000000000000e+00  -9.6555500965303698e-01 -1.0452988832081456e-03 0.0000000000000000e+00  -9.8445679521420515e-01 -5.7581032956201261e-04 0.0000000000000000e+00  -9.0446197655746752e-01 1.9279476748197411e-03 0.0000000000000000e+00  -8.9375681979708610e-01 1.1776891395712252e-03 0.0000000000000000e+00  -7.6647078996969253e-01 -3.2528344400624132e-03 0.0000000000000000e+00  -3.8711301978174117e-01 2.7561170023688852e-03 0.0000000000000000e+00  -3.1038728396264137e-01 5.8022897976527099e-03 0.0000000000000000e+00  -5.7136069071372175e-01 4.3304956374548287e-03 0.0000000000000000e+00  -9.9093395767256209e-01 -2.0375103560377195e-04 0.0000000000000000e+00  -9.9367376994235002e-01 6.0361962738142427e-04 0.0000000000000000e+00  -7.5521811669407812e-01 -3.2149029162693681e-04 0.0000000000000000e+00  -4.1629358051347770e-01 -2.9047694840033667e-03 0.0000000000000000e+00  -4.5992953139749226e-01 6.0546404812761301e-05 0.0000000000000000e+00  -7.3274897465794286e-01 -1.4683413023905412e-03 0.0000000000000000e+00  -6.3638395763487765e-01 3.4674046490608817e-03 0.0000000000000000e+00  -6.7665549976334605e-01 9.2728951728898723e-04 0.0000000000000000e+00  -7.8503532242473950e-01 1.7029995320099189e-03 0.0000000000000000e+00  -9.5091312697413755e-01 -9.1259931264398020e-04 0.0000000000000000e+00  -9.9996133420848432e-01 -2.4469026214612999e-05 0.0000000000000000e+00  -9.4117786232770773e-01 1.3006189721830874e-03 0.0000000000000000e+00  -6.5393271951115151e-01 4.7396411735036448e-03 0.0000000000000000e+00  -9.5229210632486072e-01 -2.0476073954373286e-03 0.0000000000000000e+00  -9.7338764826264468e-01 9.4947157850044928e-04 0.0000000000000000e+00  -8.1002580222054865e-01 3.0436483986124863e-03 0.0000000000000000e+00  -7.0030274899505640e-01 -1.8389047764594824e-03 0.0000000000000000e+00  -9.3345624676534600e-01 2.3102262048108613e-03 0.0000000000000000e+00  -4.8801668724037034e-01 3.4349146592140486e-03 0.0000000000000000e+00  -9.9998768969112084e-01 -4.4903778761096191e-05 0.0000000000000000e+00  -9.9945510250555702e-01 8.7304384420061609e-05 0.0000000000000000e+00  -6.6259890587770254e-01 1.8615135151358042e-03 0.0000000000000000e+00  -5.0503934589605759e-01 -6.3210122225888787e-03 0.0000000000000000e+00  -9.6785825007769544e-01 -1.1875584286977076e-03 0.0000000000000000e+00  -7.9880769174667465e-01 -1.2193004168284949e-03 0.0000000000000000e+00  -7.3072177039981545e-01 3.8031348519236841e-03 0.0000000000000000e+00  -7.0013435441343386e-01 9.8410988402514166e-04 0.0000000000000000e+00  -9.4324961835829590e-01 1.2094727839770947e-03 0.0000000000000000e+00  -9.3147257194082023e-01 1.8480624054275641e-03 0.0000000000000000e+00  -3.6646227039666202e-01 2.8668069119747661e-03 0.0000000000000000e+00  -8.9780602629789097e-01 6.5863246712838386e-04 0.0000000000000000e+00  -6.5866525345752802e-01 3.2763028814279949e-03 0.0000000000000000e+00  -4.1868042359466684e-01 -3.6445079909047107e-03 0.0000000000000000e+00  -5.9505929269625768e-01 3.2373081204018898e-03 0.0000000000000000e+00  -4.3210440522840193e-01 4.3963625831690556e-03 0.0000000000000000e+00  -5.0679253898203613e-01 -4.3280836192698124e-03 0.0000000000000000e+00  -9.9662500402484333e-01 2.2087430360989702e-04 0.0000000000000000e+00  -9.9954174939669804e-01 -5.4165854471044383e-05 0.0000000000000000e+00  -9.3612979958893039e-01 -1.2250629766132537e-04 0.0000000000000000e+00  -9.9920321237635312e-01 -2.0150172838631977e-04 0.0000000000000000e+00  -7.5264058881948270e-01 -2.6483943647765407e-03 0.0000000000000000e+00  -8.8686995928579626e-01 -1.4497117698276663e-03 0.0000000000000000e+00  -8.0993306402571941e-01 1.0502510928127092e-03 0.0000000000000000e+00  -2.7147914327752631e-01 -2.1865943170364111e-04 0.0000000000000000e+00  -3.1427310577851186e-01 2.8330162281964147e-03 0.0000000000000000e+00  -9.8203499098750058e-01 -8.5716453208245502e-04 0.0000000000000000e+00  -7.1971353102486502e-01 1.6475792291285180e-03 0.0000000000000000e+00  -8.5445386044366634e-01 2.7561576134095267e-03 0.0000000000000000e+00  -9.1656960579792146e-01 9.3568434294022396e-04 0.0000000000000000e+00  -7.9330937810488611e-01 3.1140663449996664e-03 0.0000000000000000e+00  -6.3995121114413855e-01 2.9488658736903685e-03 0.0000000000000000e+00  -9.2818106511984610e-01 -1.2846178378371209e-03 0.0000000000000000e+00  -9.7544824031533051e-01 -7.5439051546333236e-04 0.0000000000000000e+00  -9.8060510683089042e-01 -1.1963239341256093e-03 0.0000000000000000e+00  -9.5524965951696517e-01 -1.7658912903689705e-03 0.0000000000000000e+00  -8.1010559345626365e-01 3.2728843925267093e-03 0.0000000000000000e+00  -8.6950505502990416e-01 -2.1464033366035140e-03 0.0000000000000000e+00  -8.7154733812038931e-01 -2.8467084211437621e-03 0.0000000000000000e+00  -8.0051796259468877e-01 -3.3208366713638471e-04 0.0000000000000000e+00  -5.2740328712232831e-01 -1.4277350014810994e-03 0.0000000000000000e+00  -5.3232333206200666e-01 -1.0463665352708484e-03 0.0000000000000000e+00  -6.2651514593418212e-01 -3.1099083440189927e-03 0.0000000000000000e+00  -3.1689916755276654e-01 1.9789342079638266e-03 0.0000000000000000e+00  -4.1948133864735671e-01 3.4692554930425001e-03 0.0000000000000000e+00  -9.9115946031902169e-01 2.3738972891484966e-04 0.0000000000000000e+00  -7.1015346598373941e-02 5.2873711995146955e-03 0.0000000000000000e+00  -5.3854541067257233e-02 -1.5456135663554395e-03 0.0000000000000000e+00  -9.9945348414037838e-01 2.0317846678075124e-04 0.0000000000000000e+00  -5.5761115112502080e-01 -4.7954131476228845e-03 0.0000000000000000e+00  -5.5858176365346779e-01 1.1834736292050674e-03 0.0000000000000000e+00  -5.9512718954649757e-01 -4.8677051907949354e-03 0.0000000000000000e+00  -7.2429531542948344e-01 -3.6069774370072749e-03 0.0000000000000000e+00  -9.3204176077767420e-01 -1.1013615217595474e-03 0.0000000000000000e+00  -8.8710739550700834e-01 -1.4003765463344031e-04 0.0000000000000000e+00  -9.9132436516824307e-01 -5.2200402057223788e-04 0.0000000000000000e+00  -9.9185810133697505e-01 5.2140399743683119e-04 0.0000000000000000e+00  -9.6552152191452556e-01 -6.0497905429102161e-04 0.0000000000000000e+00  -9.2445935150577296e-01 -2.1814375551819642e-03 0.0000000000000000e+00  -9.9944847795591163e-01 -3.2911811454594542e-05 0.0000000000000000e+00  -9.9014505767939009e-01 2.2238863004472260e-04 0.0000000000000000e+00  -9.6502676089633654e-01 -1.4323283381512120e-03 0.0000000000000000e+00  -9.9074770425620240e-01 -5.9234172235592131e-04 0.0000000000000000e+00  -7.2979614816715277e-01 2.4212053448924523e-03 0.0000000000000000e+00  -9.2403581927749390e-01 -1.8071555453550436e-03 0.0000000000000000e+00  -5.4011464213171623e-01 5.0748710187599744e-03 0.0000000000000000e+00  -1.9458172636579846e-01 2.5103770442994723e-03 0.0000000000000000e+00  -1.9415110274805603e-01 2.5421289887077314e-03 0.0000000000000000e+00  -5.2355964322398241e-01 -3.2464427664729428e-04 0.0000000000000000e+00  -6.2891405163120595e-01 -1.8224251664201718e-03 0.0000000000000000e+00  -7.2699234205419994e-01 2.6071514212213064e-03 0.0000000000000000e+00  -9.9286553734834471e-01 6.6056333216935048e-04 0.0000000000000000e+00  -9.6778638859773936e-01 -6.0598448682908090e-04 0.0000000000000000e+00  -9.9447938228980048e-01 4.7702412068284517e-04 0.0000000000000000e+00  -6.4016228756172566e-01 -8.8310894384501654e-04 0.0000000000000000e+00  -9.5196963159126846e-01 -5.1043376300569099e-04 0.0000000000000000e+00  -9.4779198810741272e-01 1.1107430001930374e-03 0.0000000000000000e+00  -8.1125698799174983e-01 2.9112579223751212e-03 0.0000000000000000e+00  -7.3384248901155547e-01 -3.9522226748932299e-03 0.0000000000000000e+00  -8.1272186737869945e-01 -5.1309061083371077e-04 0.0000000000000000e+00  -9.2202339807850486e-01 1.8238739714501184e-03 0.0000000000000000e+00  -2.1189912854092974e-01 5.4322722069668206e-03 0.0000000000000000e+00  -2.9336071732456309e-01 -4.2550943701871735e-03 0.0000000000000000e+00  -9.8008459596261166e-01 5.4627542216570402e-04 0.0000000000000000e+00  -9.7899070594457616e-01 1.1765826211688202e-03 0.0000000000000000e+00  -8.8653608002639550e-01 -1.4011847998524063e-03 0.0000000000000000e+00  -9.7680979288518111e-01 5.1417549609654445e-04 0.0000000000000000e+00  -9.9478559308502867e-01 -4.7491657549322830e-04 0.0000000000000000e+00  -4.5053753955300258e-01 3.3922943086179512e-03 0.0000000000000000e+00  -8.5940739148329370e-01 2.1574040573073550e-03 0.0000000000000000e+00  -8.9616983909133208e-01 3.4447991099347819e-03 0.0000000000000000e+00  -7.2550299477044589e-01 -4.0698954216082661e-04 0.0000000000000000e+00  -9.9344579715430525e-01 -3.9676474770020120e-04 0.0000000000000000e+00  -8.7135528437218368e-01 1.4354823550313256e-03 0.0000000000000000e+00  -9.2661021884029804e-01 1.0391212735452737e-03 0.0000000000000000e+00  -8.8157992695612608e-01 1.0581998237715190e-03 0.0000000000000000e+00  -9.3115646154442933e-01 1.3542195156815429e-03 0.0000000000000000e+00  -8.5047526883507629e-01 -2.6216158341667573e-03 0.0000000000000000e+00  -9.9910371159382083e-01 1.4695837824718616e-04 0.0000000000000000e+00  -9.9476081210022649e-01 -2.5872565026557881e-04 0.0000000000000000e+00  -7.0478369359704585e-01 1.6075116878337958e-03 0.0000000000000000e+00  -4.6924237036434485e-01 4.8375391879607044e-03 0.0000000000000000e+00  -8.7697246334451295e-01 -6.8702382100321868e-04 0.0000000000000000e+00  -8.0188555558863084e-01 2.6430314656921416e-03 0.0000000000000000e+00  -9.8768995990584019e-01 -7.0500656557748176e-04 0.0000000000000000e+00  -9.6669734781750938e-01 1.0257684376343834e-03 0.0000000000000000e+00  -9.2243339386500123e-01 -2.5072561303181029e-03 0.0000000000000000e+00  -9.7888234333849433e-01 -6.7236390161168336e-04 0.0000000000000000e+00  -9.7344054130248625e-01 9.8326805225115721e-04 0.0000000000000000e+00  -4.6025320075827481e-01 2.6560165464206975e-03 0.0000000000000000e+00  -7.6353690507393690e-01 1.6117228125137606e-03 0.0000000000000000e+00  -8.0621754797103684e-01 3.4422757135315618e-03 0.0000000000000000e+00  -9.9664340686349207e-01 4.1196250102254472e-04 0.0000000000000000e+00  -9.6611260841070412e-01 8.9231750354941408e-04 0.0000000000000000e+00  -9.6677546015175564e-01 -1.1155457043899031e-03 0.0000000000000000e+00  -7.1212461847028563e-01 1.7171355235316987e-03 0.0000000000000000e+00  -8.8558257633023318e-01 1.2392474796186215e-03 0.0000000000000000e+00  -7.9185845663098686e-01 -3.6643200687798139e-03 0.0000000000000000e+00  -8.2113866734340202e-01 -2.6405485312097354e-03 0.0000000000000000e+00  -9.8178917093142448e-01 -6.6689109785178502e-04 0.0000000000000000e+00  -7.5156106081640317e-01 1.5127838992346626e-03 0.0000000000000000e+00  -9.6237668390128506e-01 1.4447681772233045e-03 0.0000000000000000e+00  -9.8922875533446941e-01 1.7062022422686951e-04 0.0000000000000000e+00  -9.9544922265382740e-01 1.3121760632622825e-04 0.0000000000000000e+00  -8.6037004694564390e-01 2.0009964794251989e-03 0.0000000000000000e+00  -5.0564170153746812e-01 -7.5219253123703922e-04 0.0000000000000000e+00  -7.6603423923567004e-01 -5.6998094985893921e-04 0.0000000000000000e+00  -8.6254249787221970e-01 2.9087212865657186e-03 0.0000000000000000e+00  -3.1616655592253023e-01 -1.0532523271299943e-03 0.0000000000000000e+00  -1.9352674333440473e-01 -4.2576570316150975e-03 0.0000000000000000e+00  -8.4393219193451297e-01 -2.1497336625047048e-03 0.0000000000000000e+00  -9.3659159955600491e-01 8.6735770982987459e-04 0.0000000000000000e+00  -8.8743749818531104e-01 -6.6910999306182828e-04 0.0000000000000000e+00  -9.0888771287994374e-01 -8.6948058710434317e-04 0.0000000000000000e+00  -4.0564433440550129e-01 3.9002896336274209e-03 0.0000000000000000e+00  -9.9972281962653708e-01 1.6549957950595662e-04 0.0000000000000000e+00  -6.4846839352587549e-01 1.6171908953204750e-03 0.0000000000000000e+00  -5.3303683956583048e-01 -3.1380712842379588e-03 0.0000000000000000e+00  -6.0300890451936917e-01 -2.6401333301234314e-03 0.0000000000000000e+00  -6.1551467974148988e-01 -2.3646519391780085e-03 0.0000000000000000e+00  -6.5513174032698696e-01 -4.3557083326362656e-03 0.0000000000000000e+00  -8.6835765375861895e-01 1.4112407008378680e-03 0.0000000000000000e+00  -8.8366551141875749e-01 -2.3122559459681780e-03 0.0000000000000000e+00  -9.3239783244721119e-01 -8.4094127572353905e-04 0.0000000000000000e+00  -9.7010139162608167e-01 -6.5424441802393318e-04 0.0000000000000000e+00  -2.5518755816046146e-01 1.5440453166698787e-03 0.0000000000000000e+00  -3.4938823835661864e-01 1.8906126466543905e-03 0.0000000000000000e+00  -3.1266509468106946e-01 -1.7212705571287290e-03 0.0000000000000000e+00  -9.5702276980145751e-01 8.1912994840271924e-04 0.0000000000000000e+00  -9.5927468415296979e-01 -2.2646518026859380e-04 0.0000000000000000e+00  -7.9705356275037209e-01 -3.0832177600043364e-03 0.0000000000000000e+00  -5.4121499