<?xml version="1.0"?>
<VTKFile type="UnstructuredGrid"  version="0.1"  >
<UnstructuredGrid>
<Piece  NumberOfPoints="1385" NumberOfCells="2640">
<Points>
<DataArray  type="Float64"  NumberOfComponents="3"  format="ascii">0 0 0  1 0 0  1 1 0  0 1 0  0.5 0 0  1 0.5 0  0.5 1 0  0 0.5 0  0.5 0.5 0  0 0.25 0  0.25 0 0  0.25 1 0  0 0.75 0  1 0.25 0  0.75 0 0  1 0.75 0  0.75 1 0  0.7083333333333333 0.2916666666666667 0  0.2916666666666666 0.7083333333333334 0  0.375 0.25 0  0.75 0.625 0  0.2569444444444444 0.4652777777777778 0  0.5366379310344828 0.7535919540229885 0  0.1875 0.1875 0  0.8125 0.8125 0  0.869047619047619 0.375 0  0.1450441919191919 0.6052714646464646 0  0.375 0.8690476190476191 0  0.5526960784313725 0.1825980392156862 0  0.8385416666666666 0.1614583333333334 0  0.1614583333333333 0.8385416666666667 0  0.6736111111111112 0.4652777777777778 0  0.1367521367521368 0.3477564102564102 0  0.6570970491253563 0.8648656830417855 0  0.5102479397556124 0.3386260301221938 0  0.3654513888888889 0.5737847222222222 0  0.6929750044954185 0.1362784921584263 0  0.388576102743835 0.411911725237599 0  0.6091269841269842 0.5942460317460317 0  0.875 0.6875 0  0.427278890279516 0.119889445139758 0  0.8544456845238095 0.5213913690476191 0  0.125 0 0  0 0.125 0  1 0.875 0  0.875 1 0  0.1280008648150532 0.4769292340226777 0  0.2695382451711197 0.3321750950221553 0  0.7031567235715964 0.7447810921428012 0  0.625 0 0  0.375 0 0  0.125 1 0  0.875 0 0  0 0.375 0  0 0.625 0  1 0.375 0  0.375 1 0  1 0.125 0  0 0.875 0  0.625 1 0  1 0.625 0  0.2979288363930608 0.1201429454643536 0  0.410919540229885 0.7484605911330049 0  0.5325041980395562 0.878905151526474 0  0.4831670727569156 0.6331060043826487 0  0.1735997378973042 0.7204747378973043 0  0.2534919507575758 0.5772372159090909 0  0.2633928571428572 0.8876488095238095 0  0.8199404761904761 0.2730654761904762 0  0.75830270586982 0.3919383189517417 0  0.5750282248382511 0.4237522353023667 0  0.6008360210023379 0.2794828358598495 0  0.08163442644334186 0.6821295860397322 0  0.08333333333333333 0.1875 0  0.2028380815996574 0.08844602719988583 0  0.2766521142611967 0.2325436572164097 0  0.90625 0.78125 0  0.890625 0.890625 0  0.7545696325008384 0.8973565441669461 0  0.5625 0.08086590340834317 0  0.09077380952380953 0.09077380952380952 0  0.4610923478694773 0.209034015149656 0  0.7542527598351648 0.5248380520595106 0  0.6459235536037465 0.3619913988405765 0  0.7560381768882634 0.20506142233852 0  0.07073252688172042 0.8125 0  0.0924753097241701 0.9078102849914793 0  0.9292674731182795 0.1875 0  0.9075246902758297 0.09218971500852073 0  0.8125 0.07073252688172045 0  0.2400955776842301 0.7869705776842302 0  0.9121050213379069 0.2781978201831695 0  0.7916878157143976 0.7239689078571988 0  0.9345238095238094 0.4375 0  0.4375 0.9345238095238095 0  0.3725616989755203 0.6651895248862173 0  0.06536271996350887 0.5625 0  0.9348362560379583 0.5625 0  0.456646798987055 0.8277247094351965 0  0.1875 0.9355758238725954 0  0.6169761231634859 0.6939779188977889 0  0.6226854751147515 0.7827911461419014 0  0.3305695598137626 0.7901697871282585 0  0.5865305325818898 0.5101085479043448 0  0.6622701297028378 0.2177663989757395 0  0.1354166666666667 0.2591702279202279 0  0 0.3125 0  0.2094429575680048 0.3936361846162499 0  0.836666296419157 0.607917407161686 0  0.6875 1 0  0.214261555450504 0.6492551722020035 0  0 0.4375 0  0.07731537126068377 0.40625 0  0.3427725432967068 0.4879566233699599 0  0.3550792513951871 0.3331953632609953 0  0.4462473953896857 0.2887834789342508 0  0.4747801464819794 0.417386052030127 0  0.8229836475148948 0.4443292349237342 0  0.7322605135514757 0.8199240278289671 0  0.6756431877205955 0.5468989748126787 0  0.1968419507215863 0.5194573482612496 0  0.3285590277777778 0.9345238095238095 0  0.8125 1 0  0.4198917601920009 0.5134893045331258 0  0.5232405503206691 0.2595791787880157 0  1 0.9375 0  0.1987510870015086 0.3025185951894431 0  0.5625 1 0  0.6005390654136388 0.9228110509230952 0  0.6411254848194414 0.07704872765442942 0  0.3357233162523242 0.1855113224530532 0  0.6730653396610877 0.6393887462324165 0  0.310966987234063 0.6240019765311626 0  0.7368737836204349 0.07457755202327881 0  0.6192316414418171 0.1485238406378594 0  0.5432429670607106 0.678552703844006 0  0.4754371679695679 0.7103946803120881 0  0.07501324890749672 0.3043839897335739 0  0.5358146975860403 0.5688321463205916 0  0.3115271739500156 0.3982137365971444 0  0.3625191397122174 0.0767854603650549 0  0.5024029442563831 0.1264128223758444 0  0.4375 0 0  0.4699946908887376 0.06379961173775725 0  0.9375 0.71875 0  0.9272105898044465 0.635671179608893 0  0.9375 1 0  0.6690971819568612 0.9331530898202766 0  0.1073454944778885 0.7499206387638554 0  0.8699082999280406 0.2232403652524313 0  0.5773118091863964 0.3548027349159383 0  0.1354166666666667 0.1428571428571428 0  0.3125 0 0  0.8241684193077341 0.9257452995055244 0  0.4352314948354036 0.3586940847489378 0  0.4351301473778832 0.5819726043539077 0  0.8073232928518163 0.3419398170341962 0  0.7775949246947366 0.1298519409204575 0  0.6875 0 0  0.7413513991851041 0.457933324954483 0  0.939453125 0.841796875 0  0.5630355154606987 0.8171875156478349 0  0.9345238095238095 0.3461466592368577 0  0.9375 0 0  1 0.0625 0  0.0625 1 0  0 0.9375 0  0.06552178593177167 0.4969053669623468 0  0.1424866619031703 0.4130277709291224 0  0.1275287182444726 0.5422946908002588 0  0.2637686595586339 0.06413888464529549 0  0.2524263535491086 0.1697437503243817 0  0.7367218397988525 0.6888573970660841 0  0.0625 0 0  0 0.0625 0  0.8463594539285995 0.7578283617857982 0  0.3128751192101563 0.2851997374369947 0  0.4015281788351144 0.1806421385113692 0  0.1910251795116588 0.4553332197174453 0  0.287797471442006 0.5222621440543902 0  0.3962628745986055 0.8097380085535307 0  0.3505895299554843 0.7304878890838692 0  0.5019151500495276 0.9356042615328103 0  0.9374389419410134 0.4999931039076005 0  0.3125 1 0  0.1875 1 0  1 0.5625 0  0.4375 1 0  1 0.3125 0  1 0.4375 0  0.8125 0 0  1 0.1875 0  0.5625 0 0  0.1875 0 0  0 0.1875 0  0 0.5625 0  0 0.6875 0  0 0.8125 0  1 0.6875 0  1 0.8125 0  0.8021696218581627 0.6612893947866073 0  0.06154922295426143 0.6239401126946708 0  0.9359375 0.9359375 0  0.4666158024849896 0.7691515918155014 0  0.2318201265217025 0.7064974250277525 0  0.1565954253579966 0.6635489312486841 0  0.1598132503680848 0.7787147500325552 0  0.3146529991605639 0.8510876378205265 0  0.1461873209418733 0.05982804528877814 0  0.06109554988524315 0.2446551776247686 0  0.8054950308560754 0.5564226538848541 0  0.470541749491976 0.8853316336952531 0  0.6948472567465137 0.4042308563372457 0  0.8802828472348889 0.4658893256343853 0  0.6788075634946739 0.7974194205806069 0  0.2155048659603867 0.2428201584940968 0  0.8131223143423806 0.2132171049028394 0  0.4330798005432235 0.6671274900735726 0  0.6015279126162613 0.2187368078743274 0  0.8061636571464289 0.8703766630361714 0  0.7008230445061776 0.3478568388444072 0  0.8638466246958771 0.3147095987735538 0  0.204801534004265 0.8789209409594009 0  0.2449006736431132 0.9424182882803838 0  0.7611268409371427 0.2643056884799992 0  0.7552800864046191 0.7678006649959446 0  0.5983639638906616 0.864113435029236 0  0.1956559506814437 0.577281203577426 0  0.3527670268164207 0.1320469097565204 0  0.7530364577483248 0.3262386077083089 0  0.4535919187979363 0.4690107087451527 0  0.8824869791666666 0.8336588541666666 0  0.8814453125 0.9451171875 0  0.5582987942628019 0.622421666543858 0  0.6817532446064828 0.6939001801354731 0  0.3830295138888889 0.9450968952922078 0  0.4140603937012541 0.05211333372716105 0  0.5535864501303013 0.3060591985391672 0  0.6560130086346878 0.2729726562211558 0  0.890203140221684 0.5948314305427268 0  0.7043857725999024 0.593980890020804 0  0.5105843922695152 0.8016828014338627 0  0.05365910753708378 0.7315110031682004 0  0.616904573672261 0.4621186633436136 0  0.5338511646455415 0.387875898899613 0  0.5231769258947843 0.4477682463140762 0  0.650302973237622 0.7370722302085519 0  0.3927483139621257 0.4662414504529014 0  0.8034595960585199 0.4972538342758211 0  0.7738337841682438 0.9496376207663251 0  0.7193737507158268 0.954685447650112 0  0.482525916480686 0.5528257169991676 0  0.2533501157346781 0.2809495420003238 0  0.3118487924482243 0.5702930126570319 0  0.6257598847669529 0.4104163315430518 0  0.1354166666666667 0.1955605158730158 0  0.04166666666666666 0.15625 0  0.3956448985530264 0.6174149462065157 0  0.8102897701818546 0.3938784238208349 0  0.2641154190013625 0.8344469561943118 0  0.642852220770013 0.5068794586563659 0  0.05271458179508221 0.355846947336007 0  0.7021551360070266 0.8921457280225779 0  0.5692125776683765 0.1328512638850284 0  0.5206162811937602 0.04865158770992991 0  0.6001838442201555 0.04540556991297563 0  0.2597716608242787 0.4118346398477178 0  0.4040584599473195 0.3179589136784675 0  0.1480337679295207 0.8941560631483065 0  0.1344356707112281 0.9466251177415842 0  0.7114696411829317 0.4983917389078826 0  0.7585704698442475 0.5751926345944629 0  0.2189131956390871 0.04022068508159698 0  0.2476935455192043 0.1123642267635843 0  0.185995005654517 0.1365524537205238 0  0.6223414373308711 0.643380839165121 0  0.5732602596637543 0.7190051747306219 0  0.268358222364537 0.6586246524467934 0  0.3265879848129173 0.2369791782191225 0  0.1267095595787346 0.7034787238999181 0  0.1115202922226038 0.6421997933884982 0  0.3128688392940203 0.07260997451790079 0  0.550724900485678 0.9253360991633187 0  0.7142608810459105 0.2384904702214873 0  0.7045869185243887 0.1871826897887429 0  0.890625 0.734375 0  0.953125 0.765625 0  0.2111812642821677 0.8286209446459138 0  0.9590293078204457 0.09375 0  0.953431269039847 0.1435719386408004 0  0.04097069217955424 0.90625 0  0.04656873096015299 0.8564280613591996 0  0.1078743037981226 0.8541621766048062 0  0.8921256962018773 0.1458378233951939 0  0.8521576979194619 0.1084496634207678 0  0.8655663982740958 0.05464346096571447 0  0.04005659640905543 0.09375 0  0.1001448316533417 0.04246776244228261 
[...]
<PointData  Vectors="f_8394-0-0"> 
<DataArray  type="Float64"  Name="f_8394-0-0"  NumberOfComponents="3" format="ascii">-1.4120747247657106e-02 7.1447102601626842e-03 0.0000000000000000e+00  -8.4408766544197977e-01 1.4876427157575201e-03 0.0000000000000000e+00  -9.1339759319830049e-01 2.5404800500335883e-03 0.0000000000000000e+00  -8.3719389415740730e-01 -1.2949645127713350e-05 0.0000000000000000e+00  -4.8640611717888887e-01 2.9546366939913749e-03 0.0000000000000000e+00  -9.9686717331734187e-01 -5.9035847100902261e-05 0.0000000000000000e+00  -9.9762128558439367e-01 1.6667281998261691e-04 0.0000000000000000e+00  -4.8097317084792457e-01 5.5670969219046018e-03 0.0000000000000000e+00  -8.3825230158090380e-01 -1.7131345332666581e-03 0.0000000000000000e+00  -2.5409953162838295e-01 2.8021564131601728e-03 0.0000000000000000e+00  -2.5499163358943211e-01 3.6984024414447158e-03 0.0000000000000000e+00  -9.4621788553619390e-01 -1.0098369261795082e-03 0.0000000000000000e+00  -6.7375838358356921e-01 4.8728886781707753e-04 0.0000000000000000e+00  -9.4700062802870411e-01 -1.7286519584152615e-03 0.0000000000000000e+00  -6.8434546997010648e-01 -1.0254936066181469e-03 0.0000000000000000e+00  -9.8445998891447339e-01 1.0114518893329372e-03 0.0000000000000000e+00  -9.8563424596181359e-01 6.6417790555473033e-04 0.0000000000000000e+00  -8.4634548060132098e-01 1.4161600645898054e-03 0.0000000000000000e+00  -8.4355431505283485e-01 2.8320898512226855e-03 0.0000000000000000e+00  -5.8085694843010227e-01 -2.4623464632484993e-03 0.0000000000000000e+00  -9.7935323976255773e-01 -9.3629643206791235e-04 0.0000000000000000e+00  -6.6301832511980308e-01 -1.0467692350716318e-03 0.0000000000000000e+00  -9.6334623965330102e-01 5.7379978804206200e-04 0.0000000000000000e+00  -3.5846296309837461e-01 -4.1315202885557345e-03 0.0000000000000000e+00  -9.9885880273339878e-01 2.0618926746174271e-04 0.0000000000000000e+00  -9.4989252400519442e-01 1.0073848982263822e-03 0.0000000000000000e+00  -6.7558190612872704e-01 -1.6245712202945239e-03 0.0000000000000000e+00  -9.5035081782338260e-01 4.7756935025437819e-04 0.0000000000000000e+00  -6.7737301597783350e-01 3.1612360979786924e-03 0.0000000000000000e+00  -8.3637505077653918e-01 -1.5290065423570198e-03 0.0000000000000000e+00  -8.3767182327521283e-01 -2.4272061922179511e-03 0.0000000000000000e+00  -9.1259926765382116e-01 7.2686824971679442e-04 0.0000000000000000e+00  -4.6079264040195822e-01 -1.0827734515553022e-03 0.0000000000000000e+00  -9.9905788618438629e-01 2.0318370198901814e-04 0.0000000000000000e+00  -7.4563567647805962e-01 -3.6133848388474887e-03 0.0000000000000000e+00  -8.1325646101435578e-01 1.6236876638837106e-03 0.0000000000000000e+00  -7.3112071712856230e-01 -2.5551785118268500e-03 0.0000000000000000e+00  -7.1912951436314010e-01 -1.7576302119953913e-03 0.0000000000000000e+00  -9.3131983044678335e-01 -8.5275581797439326e-04 0.0000000000000000e+00  -9.9990536032157973e-01 -5.0946177347965804e-05 0.0000000000000000e+00  -5.2680074345395944e-01 4.1055600966343198e-03 0.0000000000000000e+00  -9.8290076183602615e-01 3.3124464744140047e-04 0.0000000000000000e+00  -1.3318164261785714e-01 4.5960207359082850e-03 0.0000000000000000e+00  -1.1449871182208683e-01 -7.6168641249085151e-04 0.0000000000000000e+00  -9.5465614537684707e-01 1.8302605453733856e-03 0.0000000000000000e+00  -9.5574352058952750e-01 1.1445043335662763e-03 0.0000000000000000e+00  -5.7638401207096157e-01 2.1175147306066178e-03 0.0000000000000000e+00  -5.7011602726207211e-01 -4.7312709967080036e-03 0.0000000000000000e+00  -9.9134928962202673e-01 -4.8710124889317363e-04 0.0000000000000000e+00  -5.9157737052297577e-01 5.7801185371542639e-04 0.0000000000000000e+00  -3.7299877045527985e-01 5.7856273787217638e-03 0.0000000000000000e+00  -8.9861038765759471e-01 -2.2873064761355089e-03 0.0000000000000000e+00  -7.7295137900573285e-01 3.3120973411181476e-03 0.0000000000000000e+00  -3.7245067821061018e-01 5.4617861988759814e-03 0.0000000000000000e+00  -5.9007768883044964e-01 2.3817776431613868e-03 0.0000000000000000e+00  -9.8006392177610979e-01 -1.2006043491076812e-03 0.0000000000000000e+00  -9.7902928638914277e-01 1.8046052561522717e-04 0.0000000000000000e+00  -9.0075956125471834e-01 -2.5127994002934750e-03 0.0000000000000000e+00  -7.6802240550353207e-01 2.6731230471837841e-03 0.0000000000000000e+00  -9.9891126733863167e-01 -4.3928125353729834e-05 0.0000000000000000e+00  -9.9858064603757157e-01 2.9630129414282003e-04 0.0000000000000000e+00  -4.0065305913161214e-01 5.2356540484860131e-03 0.0000000000000000e+00  -9.1433780334586090e-01 -1.3197994252035494e-03 0.0000000000000000e+00  -9.8650606859272916e-01 -9.8785828000402809e-04 0.0000000000000000e+00  -8.9473376241249070e-01 -2.1086578759257346e-03 0.0000000000000000e+00  -7.8451378553190176e-01 2.1638903268258458e-03 0.0000000000000000e+00  -7.4483331323470092e-01 4.7376597039184287e-03 0.0000000000000000e+00  -9.1276928472511154e-01 -2.2433467204115987e-03 0.0000000000000000e+00  -8.8323592424968433e-01 -1.3433065213159789e-03 0.0000000000000000e+00  -9.1312545238382758e-01 1.5627245043606380e-03 0.0000000000000000e+00  -8.4098303908049210e-01 2.5106351475133182e-03 0.0000000000000000e+00  -7.7644768076925497e-01 8.8970999962645347e-04 0.0000000000000000e+00  -6.9150915460484164e-01 -3.4967627359289155e-03 0.0000000000000000e+00  -2.5957516947622206e-01 -5.0339837198491999e-03 0.0000000000000000e+00  -2.7856876856032342e-01 -4.0859387094136501e-03 0.0000000000000000e+00  -4.9400257275248050e-01 3.6322789915044229e-03 0.0000000000000000e+00  -9.9452996679656458e-01 3.7615122212386609e-04 0.0000000000000000e+00  -9.7815286841737703e-01 7.3794781368977016e-04 0.0000000000000000e+00  -9.9725382267897655e-01 1.6310954087561669e-04 0.0000000000000000e+00  -5.9260717061456691e-01 -2.8240087837530514e-03 0.0000000000000000e+00  -1.9055799596479006e-01 3.6699017533857944e-03 0.0000000000000000e+00  -6.1483331005334418e-01 -1.9030247296001335e-03 0.0000000000000000e+00  -9.6033846898332531e-01 7.4279351524142445e-04 0.0000000000000000e+00  -8.4151614572823674e-01 -2.6636522212368785e-03 0.0000000000000000e+00  -8.2412573863826599e-01 -2.5476688781757573e-03 0.0000000000000000e+00  -7.7675442589347288e-01 -2.7316960417250735e-04 0.0000000000000000e+00  -8.4586862808551411e-01 -1.5651531268034997e-03 0.0000000000000000e+00  -9.0229702205407913e-01 1.5339691360637397e-03 0.0000000000000000e+00  -8.3573245205338320e-01 -2.1733675988829804e-03 0.0000000000000000e+00  -7.7709394942800469e-01 3.6717340732227433e-03 0.0000000000000000e+00  -8.5209955898110767e-01 -1.2392296627588562e-03 0.0000000000000000e+00  -9.2640821953607710e-01 -1.7181602593874801e-03 0.0000000000000000e+00  -9.9896370863655282e-01 1.3285224142689511e-04 0.0000000000000000e+00  -9.8174922395387954e-01 5.4848473482968507e-04 0.0000000000000000e+00  -9.8218463216746288e-01 3.2032431113976747e-04 0.0000000000000000e+00  -8.5891084015807118e-01 -1.8687304748894185e-03 0.0000000000000000e+00  -5.8110840016665288e-01 -3.0543651487369150e-03 0.0000000000000000e+00  -9.9784048303745221e-01 7.5729765973593655e-06 0.0000000000000000e+00  -9.6134157281273547e-01 3.4347966474312930e-04 0.0000000000000000e+00  -8.9831465846367253e-01 -2.2100827926824496e-03 0.0000000000000000e+00  -9.6543899676087297e-01 -1.0458286212082779e-03 0.0000000000000000e+00  -9.8436220628391369e-01 -5.7563576739261269e-04 0.0000000000000000e+00  -9.0399804937495376e-01 1.9240582623611946e-03 0.0000000000000000e+00  -8.9361832316504897e-01 1.1766066754634874e-03 0.0000000000000000e+00  -7.6652977437232328e-01 -3.2445049059574016e-03 0.0000000000000000e+00  -3.8687921739892539e-01 2.7524071600102951e-03 0.0000000000000000e+00  -3.1007383010478623e-01 5.7961679992488691e-03 0.0000000000000000e+00  -5.7103107253519014e-01 4.3260447213832598e-03 0.0000000000000000e+00  -9.9110454666884273e-01 -2.0348692999228035e-04 0.0000000000000000e+00  -9.9376803792272594e-01 6.0594014791870432e-04 0.0000000000000000e+00  -7.5472831671658658e-01 -3.1959663813583769e-04 0.0000000000000000e+00  -4.1585996789425900e-01 -2.8956483709869918e-03 0.0000000000000000e+00  -4.5955755319064628e-01 5.6072396406481317e-05 0.0000000000000000e+00  -7.3243711115321852e-01 -1.4668135680895311e-03 0.0000000000000000e+00  -6.3617637379715664e-01 3.4623655424693422e-03 0.0000000000000000e+00  -6.7651664194391148e-01 9.2123971361945944e-04 0.0000000000000000e+00  -7.8484178515147662e-01 1.7000407972601606e-03 0.0000000000000000e+00  -9.5106115098798905e-01 -9.0861104086675804e-04 0.0000000000000000e+00  -1.0000404609056097e+00 -2.5072065322651049e-05 0.0000000000000000e+00  -9.4113164683780937e-01 1.2973693630791705e-03 0.0000000000000000e+00  -6.5350890752310564e-01 4.7315547434907818e-03 0.0000000000000000e+00  -9.5183406021679395e-01 -2.0549849888688021e-03 0.0000000000000000e+00  -9.7374182379866736e-01 9.5825876200583693e-04 0.0000000000000000e+00  -8.0974168577377215e-01 3.0388414381803397e-03 0.0000000000000000e+00  -7.0024716557344280e-01 -1.8342235731453049e-03 0.0000000000000000e+00  -9.3418420733025920e-01 2.3330037728677144e-03 0.0000000000000000e+00  -4.8775751947706103e-01 3.4276912109334826e-03 0.0000000000000000e+00  -9.9986598759857293e-01 -4.2350266778345969e-05 0.0000000000000000e+00  -9.9937084501208107e-01 8.8430127681338178e-05 0.0000000000000000e+00  -6.6272023326179930e-01 1.8565782492281913e-03 0.0000000000000000e+00  -5.0493148159573797e-01 -6.3103190710731283e-03 0.0000000000000000e+00  -9.6780902253183643e-01 -1.1872011987758835e-03 0.0000000000000000e+00  -7.9840194214669746e-01 -1.2228595689122157e-03 0.0000000000000000e+00  -7.3090551592287722e-01 3.7927179523513654e-03 0.0000000000000000e+00  -7.0019241163209611e-01 9.8519796495095957e-04 0.0000000000000000e+00  -9.4303727599851095e-01 1.2077258244347355e-03 0.0000000000000000e+00  -9.3118268402067295e-01 1.8445197354004517e-03 0.0000000000000000e+00  -3.6617282652104360e-01 2.8697172360809681e-03 0.0000000000000000e+00  -8.9760352027475354e-01 6.5635941175495871e-04 0.0000000000000000e+00  -6.5837266828408603e-01 3.2664505585914827e-03 0.0000000000000000e+00  -4.1871845310192135e-01 -3.6345061771886344e-03 0.0000000000000000e+00  -5.9507266342604326e-01 3.2270366740969948e-03 0.0000000000000000e+00  -4.3222029797464429e-01 4.3936132232204606e-03 0.0000000000000000e+00  -5.0686306777775658e-01 -4.3190183896044954e-03 0.0000000000000000e+00  -9.9700905931334438e-01 2.2058070537900321e-04 0.0000000000000000e+00  -9.9986389836030121e-01 -5.2884983434919874e-05 0.0000000000000000e+00  -9.3677405548981152e-01 -1.1090392552275699e-04 0.0000000000000000e+00  -9.9924546617873122e-01 -1.9482278583755203e-04 0.0000000000000000e+00  -7.5202212753422071e-01 -2.6460890831201400e-03 0.0000000000000000e+00  -8.8709311801182245e-01 -1.4488806711190488e-03 0.0000000000000000e+00  -8.0984062611713048e-01 1.0488696662093872e-03 0.0000000000000000e+00  -2.7137641159052034e-01 -2.2196332682661302e-04 0.0000000000000000e+00  -3.1434833091323616e-01 2.8422745825729973e-03 0.0000000000000000e+00  -9.8236031992385175e-01 -8.5072693592247450e-04 0.0000000000000000e+00  -7.1952056815107457e-01 1.6460266465243845e-03 0.0000000000000000e+00  -8.5415434131751822e-01 2.7520267098946061e-03 0.0000000000000000e+00  -9.1669559881184437e-01 9.3288023694160227e-04 0.0000000000000000e+00  -7.9348469384793030e-01 3.1069576494408002e-03 0.0000000000000000e+00  -6.4015837397912589e-01 2.9473370597867749e-03 0.0000000000000000e+00  -9.2823228337230623e-01 -1.2846912024033208e-03 0.0000000000000000e+00  -9.7592540534877481e-01 -7.4652600939439928e-04 0.0000000000000000e+00  -9.8042615292092616e-01 -1.1961071320337746e-03 0.0000000000000000e+00  -9.5553762978801970e-01 -1.7676413540966829e-03 0.0000000000000000e+00  -8.1048131764076436e-01 3.2701146902032185e-03 0.0000000000000000e+00  -8.6992866030179872e-01 -2.1494880076921297e-03 0.0000000000000000e+00  -8.7078742441576662e-01 -2.8489750024131011e-03 0.0000000000000000e+00  -7.9973973842741697e-01 -3.3323404749269203e-04 0.0000000000000000e+00  -5.2694005884926765e-01 -1.4167279471503716e-03 0.0000000000000000e+00  -5.3195100772544024e-01 -1.0468609499187376e-03 0.0000000000000000e+00  -6.2603542473935891e-01 -3.1040585619996051e-03 0.0000000000000000e+00  -3.1692798748019785e-01 1.9815941870571022e-03 0.0000000000000000e+00  -4.1936964321605108e-01 3.4662618627467334e-03 0.0000000000000000e+00  -9.9120609871002219e-01 2.3471028057397980e-04 0.0000000000000000e+00  -7.1090993478786432e-02 5.3166412247338396e-03 0.0000000000000000e+00  -5.3859017025427350e-02 -1.5233233984889814e-03 0.0000000000000000e+00  -9.9969606642924858e-01 1.9729000606860669e-04 0.0000000000000000e+00  -5.5743099408856911e-01 -4.7894911141520558e-03 0.0000000000000000e+00  -5.5850387744880203e-01 1.1792216255862575e-03 0.0000000000000000e+00  -5.9475883612287472e-01 -4.8626962183296873e-03 0.0000000000000000e+00  -7.2391842836254627e-01 -3.6009249250857356e-03 0.0000000000000000e+00  -9.3165355161950170e-01 -1.0996221827835884e-03 0.0000000000000000e+00  -8.8667920873637651e-01 -1.4052061600089427e-04 0.0000000000000000e+00  -9.9109183959864644e-01 -5.2330080488025357e-04 0.0000000000000000e+00  -9.9215867868638430e-01 5.2361449015503325e-04 0.0000000000000000e+00  -9.6504032488417235e-01 -6.0907322639192074e-04 0.0000000000000000e+00  -9.2382936654767667e-01 -2.1815396524935693e-03 0.0000000000000000e+00  -9.9986298215294089e-01 -2.7152818294573500e-05 0.0000000000000000e+00  -9.8983641067017281e-01 2.1397381603458483e-04 0.0000000000000000e+00  -9.6540226600790235e-01 -1.4323830948052008e-03 0.0000000000000000e+00  -9.9113219497788763e-01 -5.9134684157002848e-04 0.0000000000000000e+00  -7.3007749081888751e-01 2.4079607422188821e-03 0.0000000000000000e+00  -9.2441906057071155e-01 -1.8104874308432217e-03 0.0000000000000000e+00  -5.4027149238420558e-01 5.0678478004981820e-03 0.0000000000000000e+00  -1.9462229316468455e-01 2.5317081933318940e-03 0.0000000000000000e+00  -1.9395653511876770e-01 2.5587077084064658e-03 0.0000000000000000e+00  -5.2303426377437023e-01 -3.3023794922707253e-04 0.0000000000000000e+00  -6.2826799155931279e-01 -1.8313731379461795e-03 0.0000000000000000e+00  -7.2628218250577059e-01 2.5985790511748267e-03 0.0000000000000000e+00  -9.9334873836929438e-01 6.6619673038520455e-04 0.0000000000000000e+00  -9.6836341554725081e-01 -5.9896354607635871e-04 0.0000000000000000e+00  -9.9461339303752649e-01 4.7552414368379203e-04 0.0000000000000000e+00  -6.3957344922701753e-01 -8.9431967735712631e-04 0.0000000000000000e+00  -9.5255982936189709e-01 -5.0029208537077929e-04 0.0000000000000000e+00  -9.4748179398809551e-01 1.1109394038435472e-03 0.0000000000000000e+00  -8.1073359108874765e-01 2.9057538370728109e-03 0.0000000000000000e+00  -7.3329767199114548e-01 -3.9474178014095862e-03 0.0000000000000000e+00  -8.1211356466050943e-01 -5.1528312264148557e-04 0.0000000000000000e+00  -9.2153289841609543e-01 1.8228317377669834e-03 0.0000000000000000e+00  -2.1189155385100805e-01 5.4262262503357306e-03 0.0000000000000000e+00  -2.9313915568916449e-01 -4.2435445234462743e-03 0.0000000000000000e+00  -9.8019930509855691e-01 5.4327784493274356e-04 0.0000000000000000e+00  -9.7869358604536882e-01 1.1736228971420681e-03 0.0000000000000000e+00  -8.8654706378379711e-01 -1.4005952322118098e-03 0.0000000000000000e+00  -9.7702128672066602e-01 5.0966503060123625e-04 0.0000000000000000e+00  -9.9477205061525498e-01 -4.7628778624025925e-04 0.0000000000000000e+00  -4.5033608433703604e-01 3.3862074440212248e-03 0.0000000000000000e+00  -8.5957258612872334e-01 2.1528910257302414e-03 0.0000000000000000e+00  -8.9584085200380525e-01 3.4367374803040418e-03 0.0000000000000000e+00  -7.2551830006496099e-01 -4.0980723070141445e-04 0.0000000000000000e+00  -9.9367863918861332e-01 -3.9273735264000464e-04 0.0000000000000000e+00  -8.7137338340920512e-01 1.4340668692367498e-03 0.0000000000000000e+00  -9.2680382663472927e-01 1.0347543372171142e-03 0.0000000000000000e+00  -8.8098220900999991e-01 1.0539149593621205e-03 0.0000000000000000e+00  -9.3059519787734313e-01 1.3515320097833849e-03 0.0000000000000000e+00  -8.5058985892882499e-01 -2.6201097276242757e-03 0.0000000000000000e+00  -9.9919632245592793e-01 1.4462101632606306e-04 0.0000000000000000e+00  -9.9463841626137550e-01 -2.6074635024464499e-04 0.0000000000000000e+00  -7.0430849547127727e-01 1.6025478868193499e-03 0.0000000000000000e+00  -4.6919829375445110e-01 4.8317455500357653e-03 0.0000000000000000e+00  -8.7706860481991233e-01 -6.8610175442729293e-04 0.0000000000000000e+00  -8.0164388709106782e-01 2.6405741931653792e-03 0.0000000000000000e+00  -9.8804533833788288e-01 -7.0562647553340518e-04 0.0000000000000000e+00  -9.6717072260716841e-01 1.0215637408370060e-03 0.0000000000000000e+00  -9.2225327295977011e-01 -2.5076815980095701e-03 0.0000000000000000e+00  -9.7885762929474951e-01 -6.7365955240247799e-04 0.0000000000000000e+00  -9.7304896007232111e-01 9.8496982881980666e-04 0.0000000000000000e+00  -4.6030880817581044e-01 2.6568744491448915e-03 0.0000000000000000e+00  -7.6345465728901207e-01 1.6093848002112499e-03 0.0000000000000000e+00  -8.0622973240574902e-01 3.4354348279603819e-03 0.0000000000000000e+00  -9.9688960777812174e-01 4.1266365683656492e-04 0.0000000000000000e+00  -9.6609834590887345e-01 8.8915457544433418e-04 0.0000000000000000e+00  -9.6652103477488849e-01 -1.1132039239027391e-03 0.0000000000000000e+00  -7.1147100302823463e-01 1.7106541219470417e-03 0.0000000000000000e+00  -8.8548972960895478e-01 1.2354592896761940e-03 0.0000000000000000e+00  -7.9173507088892081e-01 -3.6594210333540378e-03 0.0000000000000000e+00  -8.2097882231116803e-01 -2.6379502695648704e-03 0.0000000000000000e+00  -9.8172244281853560e-01 -6.6380030259449718e-04 0.0000000000000000e+00  -7.5129799335115499e-01 1.5081256037441579e-03 0.0000000000000000e+00  -9.6249207303129769e-01 1.4429899796782608e-03 0.0000000000000000e+00  -9.8946651296264743e-01 1.7295084183632792e-04 0.0000000000000000e+00  -9.9559045362167331e-01 1.3364063711268637e-04 0.0000000000000000e+00  -8.6012905020251251e-01 1.9969940970578498e-03 0.0000000000000000e+00  -5.0543911532847585e-01 -7.5288888991342784e-04 0.0000000000000000e+00  -7.6565800812691232e-01 -5.6717277686535450e-04 0.0000000000000000e+00  -8.6247629354683730e-01 2.9038275627429333e-03 0.0000000000000000e+00  -3.1602105277724168e-01 -1.0563325714464389e-03 0.0000000000000000e+00  -1.9337818722748421e-01 -4.2426184833689595e-03 0.0000000000000000e+00  -8.4359814163296665e-01 -2.1465683950528947e-03 0.0000000000000000e+00  -9.3671388653991450e-01 8.6329034029761220e-04 0.0000000000000000e+00  -8.8691098240322730e-01 -6.6825561481170803e-04 0.0000000000000000e+00  -9.0882234232641812e-01 -8.6885969302508137e-04 0.0000000000000000e+00  -4.0529777285025015e-01 3.9042084437068240e-03 0.0000000000000000e+00  -9.9978220982652322e-01 1.6361574597850703e-04 0.0000000000000000e+00  -6.4851082561797280e-01 1.6094272076709326e-03 0.0000000000000000e+00  -5.3317080411382745e-01 -3.1328915514887701e-03 0.0000000000000000e+00  -6.0315601581808898e-01 -2.6361042395704748e-03 0.0000000000000000e+00  -6.1521325713331865e-01 -2.3569194968175999e-03 0.0000000000000000e+00  -6.5496768634613622e-01 -4.3494553730311081e-03 0.0000000000000000e+00  -8.6769753464550259e-01 1.4061441152668497e-03 0.0000000000000000e+00  -8.8299725509566795e-01 -2.3190486755533535e-03 0.0000000000000000e+00  -9.3240790920155014e-01 -8.3929306041939655e-04 0.0000000000000000e+00  -9.7015906446183786e-01 -6.5189495362663608e-04 0.0000000000000000e+00  -2.5523626049357384e-01 1.5520506313657367e-03 0.0000000000000000e+00  -3.4934953576640670e-01 1.8897522625484001e-03 0.0000000000000000e+00  -3.1258708836658916e-01 -1.7202425047701808e-03 0.0000000000000000e+00  -9.5691118694923094e-01 8.1606327188410432e-04 0.0000000000000000e+00  -9.5910731847718156e-01 -2.2630938902674230e-04 0.0000000000000000e+00  -7.9659483766913142e-01 -3.0807327119410366e-03 0.0000000000000000e+00  -5.4105819