<?xml version="1.0"?>
<VTKFile type="UnstructuredGrid"  version="0.1"  >
<UnstructuredGrid>
<Piece  NumberOfPoints="1385" NumberOfCells="2640">
<Points>
<DataArray  type="Float64"  NumberOfComponents="3"  format="ascii">0 0 0  1 0 0  1 1 0  0 1 0  0.5 0 0  1 0.5 0  0.5 1 0  0 0.5 0  0.5 0.5 0  0 0.25 0  0.25 0 0  0.25 1 0  0 0.75 0  1 0.25 0  0.75 0 0  1 0.75 0  0.75 1 0  0.7083333333333333 0.2916666666666667 0  0.2916666666666666 0.7083333333333334 0  0.375 0.25 0  0.75 0.625 0  0.2569444444444444 0.4652777777777778 0  0.5366379310344828 0.7535919540229885 0  0.1875 0.1875 0  0.8125 0.8125 0  0.869047619047619 0.375 0  0.1450441919191919 0.6052714646464646 0  0.375 0.8690476190476191 0  0.5526960784313725 0.1825980392156862 0  0.8385416666666666 0.1614583333333334 0  0.1614583333333333 0.8385416666666667 0  0.6736111111111112 0.4652777777777778 0  0.1367521367521368 0.3477564102564102 0  0.6570970491253563 0.8648656830417855 0  0.5102479397556124 0.3386260301221938 0  0.3654513888888889 0.5737847222222222 0  0.6929750044954185 0.1362784921584263 0  0.388576102743835 0.411911725237599 0  0.6091269841269842 0.5942460317460317 0  0.875 0.6875 0  0.427278890279516 0.119889445139758 0  0.8544456845238095 0.5213913690476191 0  0.125 0 0  0 0.125 0  1 0.875 0  0.875 1 0  0.1280008648150532 0.4769292340226777 0  0.2695382451711197 0.3321750950221553 0  0.7031567235715964 0.7447810921428012 0  0.625 0 0  0.375 0 0  0.125 1 0  0.875 0 0  0 0.375 0  0 0.625 0  1 0.375 0  0.375 1 0  1 0.125 0  0 0.875 0  0.625 1 0  1 0.625 0  0.2979288363930608 0.1201429454643536 0  0.410919540229885 0.7484605911330049 0  0.5325041980395562 0.878905151526474 0  0.4831670727569156 0.6331060043826487 0  0.1735997378973042 0.7204747378973043 0  0.2534919507575758 0.5772372159090909 0  0.2633928571428572 0.8876488095238095 0  0.8199404761904761 0.2730654761904762 0  0.75830270586982 0.3919383189517417 0  0.5750282248382511 0.4237522353023667 0  0.6008360210023379 0.2794828358598495 0  0.08163442644334186 0.6821295860397322 0  0.08333333333333333 0.1875 0  0.2028380815996574 0.08844602719988583 0  0.2766521142611967 0.2325436572164097 0  0.90625 0.78125 0  0.890625 0.890625 0  0.7545696325008384 0.8973565441669461 0  0.5625 0.08086590340834317 0  0.09077380952380953 0.09077380952380952 0  0.4610923478694773 0.209034015149656 0  0.7542527598351648 0.5248380520595106 0  0.6459235536037465 0.3619913988405765 0  0.7560381768882634 0.20506142233852 0  0.07073252688172042 0.8125 0  0.0924753097241701 0.9078102849914793 0  0.9292674731182795 0.1875 0  0.9075246902758297 0.09218971500852073 0  0.8125 0.07073252688172045 0  0.2400955776842301 0.7869705776842302 0  0.9121050213379069 0.2781978201831695 0  0.7916878157143976 0.7239689078571988 0  0.9345238095238094 0.4375 0  0.4375 0.9345238095238095 0  0.3725616989755203 0.6651895248862173 0  0.06536271996350887 0.5625 0  0.9348362560379583 0.5625 0  0.456646798987055 0.8277247094351965 0  0.1875 0.9355758238725954 0  0.6169761231634859 0.6939779188977889 0  0.6226854751147515 0.7827911461419014 0  0.3305695598137626 0.7901697871282585 0  0.5865305325818898 0.5101085479043448 0  0.6622701297028378 0.2177663989757395 0  0.1354166666666667 0.2591702279202279 0  0 0.3125 0  0.2094429575680048 0.3936361846162499 0  0.836666296419157 0.607917407161686 0  0.6875 1 0  0.214261555450504 0.6492551722020035 0  0 0.4375 0  0.07731537126068377 0.40625 0  0.3427725432967068 0.4879566233699599 0  0.3550792513951871 0.3331953632609953 0  0.4462473953896857 0.2887834789342508 0  0.4747801464819794 0.417386052030127 0  0.8229836475148948 0.4443292349237342 0  0.7322605135514757 0.8199240278289671 0  0.6756431877205955 0.5468989748126787 0  0.1968419507215863 0.5194573482612496 0  0.3285590277777778 0.9345238095238095 0  0.8125 1 0  0.4198917601920009 0.5134893045331258 0  0.5232405503206691 0.2595791787880157 0  1 0.9375 0  0.1987510870015086 0.3025185951894431 0  0.5625 1 0  0.6005390654136388 0.9228110509230952 0  0.6411254848194414 0.07704872765442942 0  0.3357233162523242 0.1855113224530532 0  0.6730653396610877 0.6393887462324165 0  0.310966987234063 0.6240019765311626 0  0.7368737836204349 0.07457755202327881 0  0.6192316414418171 0.1485238406378594 0  0.5432429670607106 0.678552703844006 0  0.4754371679695679 0.7103946803120881 0  0.07501324890749672 0.3043839897335739 0  0.5358146975860403 0.5688321463205916 0  0.3115271739500156 0.3982137365971444 0  0.3625191397122174 0.0767854603650549 0  0.5024029442563831 0.1264128223758444 0  0.4375 0 0  0.4699946908887376 0.06379961173775725 0  0.9375 0.71875 0  0.9272105898044465 0.635671179608893 0  0.9375 1 0  0.6690971819568612 0.9331530898202766 0  0.1073454944778885 0.7499206387638554 0  0.8699082999280406 0.2232403652524313 0  0.5773118091863964 0.3548027349159383 0  0.1354166666666667 0.1428571428571428 0  0.3125 0 0  0.8241684193077341 0.9257452995055244 0  0.4352314948354036 0.3586940847489378 0  0.4351301473778832 0.5819726043539077 0  0.8073232928518163 0.3419398170341962 0  0.7775949246947366 0.1298519409204575 0  0.6875 0 0  0.7413513991851041 0.457933324954483 0  0.939453125 0.841796875 0  0.5630355154606987 0.8171875156478349 0  0.9345238095238095 0.3461466592368577 0  0.9375 0 0  1 0.0625 0  0.0625 1 0  0 0.9375 0  0.06552178593177167 0.4969053669623468 0  0.1424866619031703 0.4130277709291224 0  0.1275287182444726 0.5422946908002588 0  0.2637686595586339 0.06413888464529549 0  0.2524263535491086 0.1697437503243817 0  0.7367218397988525 0.6888573970660841 0  0.0625 0 0  0 0.0625 0  0.8463594539285995 0.7578283617857982 0  0.3128751192101563 0.2851997374369947 0  0.4015281788351144 0.1806421385113692 0  0.1910251795116588 0.4553332197174453 0  0.287797471442006 0.5222621440543902 0  0.3962628745986055 0.8097380085535307 0  0.3505895299554843 0.7304878890838692 0  0.5019151500495276 0.9356042615328103 0  0.9374389419410134 0.4999931039076005 0  0.3125 1 0  0.1875 1 0  1 0.5625 0  0.4375 1 0  1 0.3125 0  1 0.4375 0  0.8125 0 0  1 0.1875 0  0.5625 0 0  0.1875 0 0  0 0.1875 0  0 0.5625 0  0 0.6875 0  0 0.8125 0  1 0.6875 0  1 0.8125 0  0.8021696218581627 0.6612893947866073 0  0.06154922295426143 0.6239401126946708 0  0.9359375 0.9359375 0  0.4666158024849896 0.7691515918155014 0  0.2318201265217025 0.7064974250277525 0  0.1565954253579966 0.6635489312486841 0  0.1598132503680848 0.7787147500325552 0  0.3146529991605639 0.8510876378205265 0  0.1461873209418733 0.05982804528877814 0  0.06109554988524315 0.2446551776247686 0  0.8054950308560754 0.5564226538848541 0  0.470541749491976 0.8853316336952531 0  0.6948472567465137 0.4042308563372457 0  0.8802828472348889 0.4658893256343853 0  0.6788075634946739 0.7974194205806069 0  0.2155048659603867 0.2428201584940968 0  0.8131223143423806 0.2132171049028394 0  0.4330798005432235 0.6671274900735726 0  0.6015279126162613 0.2187368078743274 0  0.8061636571464289 0.8703766630361714 0  0.7008230445061776 0.3478568388444072 0  0.8638466246958771 0.3147095987735538 0  0.204801534004265 0.8789209409594009 0  0.2449006736431132 0.9424182882803838 0  0.7611268409371427 0.2643056884799992 0  0.7552800864046191 0.7678006649959446 0  0.5983639638906616 0.864113435029236 0  0.1956559506814437 0.577281203577426 0  0.3527670268164207 0.1320469097565204 0  0.7530364577483248 0.3262386077083089 0  0.4535919187979363 0.4690107087451527 0  0.8824869791666666 0.8336588541666666 0  0.8814453125 0.9451171875 0  0.5582987942628019 0.622421666543858 0  0.6817532446064828 0.6939001801354731 0  0.3830295138888889 0.9450968952922078 0  0.4140603937012541 0.05211333372716105 0  0.5535864501303013 0.3060591985391672 0  0.6560130086346878 0.2729726562211558 0  0.890203140221684 0.5948314305427268 0  0.7043857725999024 0.593980890020804 0  0.5105843922695152 0.8016828014338627 0  0.05365910753708378 0.7315110031682004 0  0.616904573672261 0.4621186633436136 0  0.5338511646455415 0.387875898899613 0  0.5231769258947843 0.4477682463140762 0  0.650302973237622 0.7370722302085519 0  0.3927483139621257 0.4662414504529014 0  0.8034595960585199 0.4972538342758211 0  0.7738337841682438 0.9496376207663251 0  0.7193737507158268 0.954685447650112 0  0.482525916480686 0.5528257169991676 0  0.2533501157346781 0.2809495420003238 0  0.3118487924482243 0.5702930126570319 0  0.6257598847669529 0.4104163315430518 0  0.1354166666666667 0.1955605158730158 0  0.04166666666666666 0.15625 0  0.3956448985530264 0.6174149462065157 0  0.8102897701818546 0.3938784238208349 0  0.2641154190013625 0.8344469561943118 0  0.642852220770013 0.5068794586563659 0  0.05271458179508221 0.355846947336007 0  0.7021551360070266 0.8921457280225779 0  0.5692125776683765 0.1328512638850284 0  0.5206162811937602 0.04865158770992991 0  0.6001838442201555 0.04540556991297563 0  0.2597716608242787 0.4118346398477178 0  0.4040584599473195 0.3179589136784675 0  0.1480337679295207 0.8941560631483065 0  0.1344356707112281 0.9466251177415842 0  0.7114696411829317 0.4983917389078826 0  0.7585704698442475 0.5751926345944629 0  0.2189131956390871 0.04022068508159698 0  0.2476935455192043 0.1123642267635843 0  0.185995005654517 0.1365524537205238 0  0.6223414373308711 0.643380839165121 0  0.5732602596637543 0.7190051747306219 0  0.268358222364537 0.6586246524467934 0  0.3265879848129173 0.2369791782191225 0  0.1267095595787346 0.7034787238999181 0  0.1115202922226038 0.6421997933884982 0  0.3128688392940203 0.07260997451790079 0  0.550724900485678 0.9253360991633187 0  0.7142608810459105 0.2384904702214873 0  0.7045869185243887 0.1871826897887429 0  0.890625 0.734375 0  0.953125 0.765625 0  0.2111812642821677 0.8286209446459138 0  0.9590293078204457 0.09375 0  0.953431269039847 0.1435719386408004 0  0.04097069217955424 0.90625 0  0.04656873096015299 0.8564280613591996 0  0.1078743037981226 0.8541621766048062 0  0.8921256962018773 0.1458378233951939 0  0.8521576979194619 0.1084496634207678 0  0.8655663982740958 0.05464346096571447 0  0.04005659640905543 0.09375 0  0.1001448316533417 0.04246776244228261 
[...]
<PointData  Vectors="f_8394-0-0"> 
<DataArray  type="Float64"  Name="f_8394-0-0"  NumberOfComponents="3" format="ascii">-1.4022641155025354e-02 7.1391360319508976e-03 0.0000000000000000e+00  -8.4392080233336852e-01 1.4894847645102738e-03 0.0000000000000000e+00  -9.1309183195807064e-01 2.5465653892263601e-03 0.0000000000000000e+00  -8.3751740667908037e-01 -1.3046736188843458e-05 0.0000000000000000e+00  -4.8634674407683620e-01 2.9551471258634776e-03 0.0000000000000000e+00  -9.9669758198746650e-01 -5.7795565331156262e-05 0.0000000000000000e+00  -9.9770961200429531e-01 1.7119287869557200e-04 0.0000000000000000e+00  -4.8117739329473697e-01 5.5773310979579105e-03 0.0000000000000000e+00  -8.3833099886337625e-01 -1.7140876962468132e-03 0.0000000000000000e+00  -2.5420722477206470e-01 2.7946150614686360e-03 0.0000000000000000e+00  -2.5496325524998514e-01 3.6972476158980607e-03 0.0000000000000000e+00  -9.4643154337720681e-01 -1.0082168085563392e-03 0.0000000000000000e+00  -6.7403004198445371e-01 4.8502688415289971e-04 0.0000000000000000e+00  -9.4684660076258609e-01 -1.7279469139205861e-03 0.0000000000000000e+00  -6.8424358682392028e-01 -1.0253064352424368e-03 0.0000000000000000e+00  -9.8424284969371989e-01 1.0070968542816860e-03 0.0000000000000000e+00  -9.8553787930187164e-01 6.5954735382756091e-04 0.0000000000000000e+00  -8.4632225891384305e-01 1.4185909824429577e-03 0.0000000000000000e+00  -8.4374195487745118e-01 2.8334593445296097e-03 0.0000000000000000e+00  -5.8090457671753393e-01 -2.4634930335355465e-03 0.0000000000000000e+00  -9.7932766838568475e-01 -9.3525070289926515e-04 0.0000000000000000e+00  -6.6315922124526061e-01 -1.0481342515619718e-03 0.0000000000000000e+00  -9.6343208932557434e-01 5.7618566774805813e-04 0.0000000000000000e+00  -3.5851012989098979e-01 -4.1330035155183187e-03 0.0000000000000000e+00  -9.9876895928048814e-01 2.0841214693601007e-04 0.0000000000000000e+00  -9.4981099499852240e-01 1.0055617616234747e-03 0.0000000000000000e+00  -6.7578396277324626e-01 -1.6244793988814954e-03 0.0000000000000000e+00  -9.5051991352469711e-01 4.7699917453399715e-04 0.0000000000000000e+00  -6.7737054083273995e-01 3.1650950920274479e-03 0.0000000000000000e+00  -8.3628121428387991e-01 -1.5286750084864131e-03 0.0000000000000000e+00  -8.3791887070383697e-01 -2.4283630727670313e-03 0.0000000000000000e+00  -9.1261165253296861e-01 7.2902615476821975e-04 0.0000000000000000e+00  -4.6090881466148237e-01 -1.0847845430351222e-03 0.0000000000000000e+00  -9.9906848432769568e-01 2.0153161406238906e-04 0.0000000000000000e+00  -7.4567778542453134e-01 -3.6144455486836757e-03 0.0000000000000000e+00  -8.1340019955856802e-01 1.6240296677292598e-03 0.0000000000000000e+00  -7.3106784780622369e-01 -2.5546459578750236e-03 0.0000000000000000e+00  -7.1922604203599960e-01 -1.7588121346487750e-03 0.0000000000000000e+00  -9.3136651786231095e-01 -8.5272928417390315e-04 0.0000000000000000e+00  -9.9980006650750675e-01 -5.1361415992545734e-05 0.0000000000000000e+00  -5.2680210434344943e-01 4.1061011877271403e-03 0.0000000000000000e+00  -9.8282557158230821e-01 3.3117137259998375e-04 0.0000000000000000e+00  -1.3314565309328955e-01 4.5776741940764809e-03 0.0000000000000000e+00  -1.1452660077509347e-01 -7.7975637305392753e-04 0.0000000000000000e+00  -9.5439510180547993e-01 1.8228267334848836e-03 0.0000000000000000e+00  -9.5554866685782713e-01 1.1349146313694991e-03 0.0000000000000000e+00  -5.7655932664478449e-01 2.1157433008008597e-03 0.0000000000000000e+00  -5.7021769221644281e-01 -4.7342310721833758e-03 0.0000000000000000e+00  -9.9134140537995019e-01 -4.8663210209853869e-04 0.0000000000000000e+00  -5.9150523343822103e-01 5.7427732108200646e-04 0.0000000000000000e+00  -3.7295616872113468e-01 5.7874888784698320e-03 0.0000000000000000e+00  -8.9888296564510561e-01 -2.2848414852748578e-03 0.0000000000000000e+00  -7.7280458126728369e-01 3.3150844674040281e-03 0.0000000000000000e+00  -3.7258238066904936e-01 5.4631131053964332e-03 0.0000000000000000e+00  -5.9032880467074644e-01 2.3716839305805149e-03 0.0000000000000000e+00  -9.7990763909221135e-01 -1.2013869414522760e-03 0.0000000000000000e+00  -9.7917703152691737e-01 1.8492569284180482e-04 0.0000000000000000e+00  -9.0059730635849666e-01 -2.5117947807697383e-03 0.0000000000000000e+00  -7.6832497018070778e-01 2.6817948759166044e-03 0.0000000000000000e+00  -9.9891591676609159e-01 -5.1825921469562362e-05 0.0000000000000000e+00  -9.9839828183103552e-01 2.9531796363324592e-04 0.0000000000000000e+00  -4.0066465478036745e-01 5.2370354063640545e-03 0.0000000000000000e+00  -9.1448053593284850e-01 -1.3219867887049874e-03 0.0000000000000000e+00  -9.8659123500683377e-01 -9.9053312536434568e-04 0.0000000000000000e+00  -8.9483597508738588e-01 -2.1096696353712918e-03 0.0000000000000000e+00  -7.8474393459752190e-01 2.1660091221672451e-03 0.0000000000000000e+00  -7.4500341580861296e-01 4.7407588078703378e-03 0.0000000000000000e+00  -9.1298523972102164e-01 -2.2413811393861144e-03 0.0000000000000000e+00  -8.8316383869256554e-01 -1.3438850949422099e-03 0.0000000000000000e+00  -9.1309433223012448e-01 1.5628061058543669e-03 0.0000000000000000e+00  -8.4102749053815995e-01 2.5135862708109691e-03 0.0000000000000000e+00  -7.7646219110545933e-01 8.8933163911519841e-04 0.0000000000000000e+00  -6.9175032921725232e-01 -3.5001779000790045e-03 0.0000000000000000e+00  -2.5963279229048647e-01 -5.0399668617348292e-03 0.0000000000000000e+00  -2.7857137867234910e-01 -4.0887523371679890e-03 0.0000000000000000e+00  -4.9407118742413897e-01 3.6347993114742572e-03 0.0000000000000000e+00  -9.9438368401756994e-01 3.7800864173076487e-04 0.0000000000000000e+00  -9.7798589777767198e-01 7.3800813031751401e-04 0.0000000000000000e+00  -9.9718992510304116e-01 1.6314713006315706e-04 0.0000000000000000e+00  -5.9256388139508576e-01 -2.8245582871228025e-03 0.0000000000000000e+00  -1.9057717646451452e-01 3.6751103959019246e-03 0.0000000000000000e+00  -6.1485015402913412e-01 -1.9055780586602067e-03 0.0000000000000000e+00  -9.6031596296856681e-01 7.4258810336291781e-04 0.0000000000000000e+00  -8.4152330854260149e-01 -2.6660652926895345e-03 0.0000000000000000e+00  -8.2407441371256007e-01 -2.5510634475917615e-03 0.0000000000000000e+00  -7.7702878468916636e-01 -2.7278127893920479e-04 0.0000000000000000e+00  -8.4615118430463976e-01 -1.5649338264316949e-03 0.0000000000000000e+00  -9.0218006843574938e-01 1.5349420933467584e-03 0.0000000000000000e+00  -8.3560398030727334e-01 -2.1703690123643371e-03 0.0000000000000000e+00  -7.7700065983126798e-01 3.6710628114799970e-03 0.0000000000000000e+00  -8.5231476943249573e-01 -1.2399613235460349e-03 0.0000000000000000e+00  -9.2630506689386571e-01 -1.7174348423051322e-03 0.0000000000000000e+00  -9.9890488709891756e-01 1.3464904858567772e-04 0.0000000000000000e+00  -9.8163638714797941e-01 5.4861089070587510e-04 0.0000000000000000e+00  -9.8231549777340676e-01 3.1635075853887664e-04 0.0000000000000000e+00  -8.5905882465425187e-01 -1.8701803964399633e-03 0.0000000000000000e+00  -5.8130198473541261e-01 -3.0636032341854191e-03 0.0000000000000000e+00  -9.9771224262109481e-01 7.3370173600713351e-06 0.0000000000000000e+00  -9.6147165707247595e-01 3.4450942551311758e-04 0.0000000000000000e+00  -8.9856411486879995e-01 -2.2065051019979631e-03 0.0000000000000000e+00  -9.6548369929661459e-01 -1.0450965944748258e-03 0.0000000000000000e+00  -9.8439635091662070e-01 -5.7552225491618036e-04 0.0000000000000000e+00  -9.0418280059447598e-01 1.9259953875234714e-03 0.0000000000000000e+00  -8.9367247593280685e-01 1.1769792222909858e-03 0.0000000000000000e+00  -7.6650352534130217e-01 -3.2494462611463160e-03 0.0000000000000000e+00  -3.8697121060981327e-01 2.7535623949855592e-03 0.0000000000000000e+00  -3.1019540169025572e-01 5.7983046204898303e-03 0.0000000000000000e+00  -5.7116151179317765e-01 4.3275049527523868e-03 0.0000000000000000e+00  -9.9103494408737069e-01 -2.0343421749446922e-04 0.0000000000000000e+00  -9.9372446100145639e-01 6.0467331811575598e-04 0.0000000000000000e+00  -7.5492267683512360e-01 -3.2114222856605319e-04 0.0000000000000000e+00  -4.1603476647656573e-01 -2.9016484754803007e-03 0.0000000000000000e+00  -4.5970278238845808e-01 5.9877191278728814e-05 0.0000000000000000e+00  -7.3256100388106260e-01 -1.4671042795204037e-03 0.0000000000000000e+00  -6.3625668666623292e-01 3.4637520999859089e-03 0.0000000000000000e+00  -6.7657205574871626e-01 9.2579750848187370e-04 0.0000000000000000e+00  -7.8491504470361328e-01 1.7011292927345822e-03 0.0000000000000000e+00  -9.5099854136897277e-01 -9.1112818469235579e-04 0.0000000000000000e+00  -1.0000055615215391e+00 -2.4638717690983469e-05 0.0000000000000000e+00  -9.4114844843154111e-01 1.2987979083078360e-03 0.0000000000000000e+00  -6.5367717540314996e-01 4.7351037311472166e-03 0.0000000000000000e+00  -9.5201454420807252e-01 -2.0494080521587243e-03 0.0000000000000000e+00  -9.7358756910988986e-01 9.5330685739014598e-04 0.0000000000000000e+00  -8.0985236511774228e-01 3.0403798449785135e-03 0.0000000000000000e+00  -7.0026735774162896e-01 -1.8368359155286895e-03 0.0000000000000000e+00  -9.3388019048668802e-01 2.3148088333543870e-03 0.0000000000000000e+00  -4.8785981304096737e-01 3.4314231735180500e-03 0.0000000000000000e+00  -9.9990807083971989e-01 -4.3861719252857867e-05 0.0000000000000000e+00  -9.9940325717255307e-01 8.7912691108082974e-05 0.0000000000000000e+00  -6.6267306317890562e-01 1.8591361368222592e-03 0.0000000000000000e+00  -5.0497383724246947e-01 -6.3149567921744199e-03 0.0000000000000000e+00  -9.6782696964558845e-01 -1.1874055708194636e-03 0.0000000000000000e+00  -7.9856270090133108e-01 -1.2196008431893945e-03 0.0000000000000000e+00  -7.3083073084405237e-01 3.7972845468282057e-03 0.0000000000000000e+00  -7.0016668954843264e-01 9.8287667724485106e-04 0.0000000000000000e+00  -9.4312092015072491e-01 1.2089037625027665e-03 0.0000000000000000e+00  -9.3129559678191420e-01 1.8460664243711289e-03 0.0000000000000000e+00  -3.6628828303947997e-01 2.8667136917720770e-03 0.0000000000000000e+00  -8.9768263369039081e-01 6.5727382373126364e-04 0.0000000000000000e+00  -6.5848949386355260e-01 3.2722069176317481e-03 0.0000000000000000e+00  -4.1870282443297230e-01 -3.6397811651421863e-03 0.0000000000000000e+00  -5.9506395206940443e-01 3.2330349257496433e-03 0.0000000000000000e+00  -4.3216460436651072e-01 4.3939438798920039e-03 0.0000000000000000e+00  -5.0683857889724937e-01 -4.3224501844344870e-03 0.0000000000000000e+00  -9.9685144314664154e-01 2.2088928743169145e-04 0.0000000000000000e+00  -9.9973322877552095e-01 -5.3421829877775551e-05 0.0000000000000000e+00  -9.3649651091535202e-01 -1.2163354353787211e-04 0.0000000000000000e+00  -9.9922631061322120e-01 -1.9898857742734616e-04 0.0000000000000000e+00  -7.5226717845108171e-01 -2.6468439617064743e-03 0.0000000000000000e+00  -8.8700305350957442e-01 -1.4489653609139896e-03 0.0000000000000000e+00  -8.0987666921451062e-01 1.0491132542552149e-03 0.0000000000000000e+00  -2.7141640594604344e-01 -2.1996097885174093e-04 0.0000000000000000e+00  -3.1431239197550931e-01 2.8352092415179285e-03 0.0000000000000000e+00  -9.8222884646956543e-01 -8.5443677115631944e-04 0.0000000000000000e+00  -7.1959718522084581e-01 1.6459649795766973e-03 0.0000000000000000e+00  -8.5427136318630015e-01 2.7536411785510362e-03 0.0000000000000000e+00  -9.1664311509972596e-01 9.3394447191064156e-04 0.0000000000000000e+00  -7.9341246891710893e-01 3.1105773146855586e-03 0.0000000000000000e+00  -6.4006953583161053e-01 2.9475049603201039e-03 0.0000000000000000e+00  -9.2820896218440674e-01 -1.2843251190721716e-03 0.0000000000000000e+00  -9.7573039803573880e-01 -7.5140011134466889e-04 0.0000000000000000e+00  -9.8049559121901630e-01 -1.1958649873003990e-03 0.0000000000000000e+00  -9.5541831573444902e-01 -1.7665493476202165e-03 0.0000000000000000e+00  -8.1032321389120088e-01 3.2716654150267699e-03 0.0000000000000000e+00  -8.6975368777666739e-01 -2.1460476115707505e-03 0.0000000000000000e+00  -8.7108484515173212e-01 -2.8460679200106309e-03 0.0000000000000000e+00  -8.0004633368982792e-01 -3.3274902295088449e-04 0.0000000000000000e+00  -5.2712435859536522e-01 -1.4240344538764341e-03 0.0000000000000000e+00  -5.3209799107785771e-01 -1.0457162846670143e-03 0.0000000000000000e+00  -6.2622384726123392e-01 -3.1065239107546552e-03 0.0000000000000000e+00  -3.1691492265601889e-01 1.9792113722152151e-03 0.0000000000000000e+00  -4.1940899145682942e-01 3.4661282354248868e-03 0.0000000000000000e+00  -9.9118455257324234e-01 2.3633651595134086e-04 0.0000000000000000e+00  -7.1040265289522925e-02 5.2909944492046529e-03 0.0000000000000000e+00  -5.3851445240457180e-02 -1.5428539743153925e-03 0.0000000000000000e+00  -9.9959718675375819e-01 2.0094549275184725e-04 0.0000000000000000e+00  -5.5750068849922751e-01 -4.7912502594226747e-03 0.0000000000000000e+00  -5.5853228451655357e-01 1.1818803148414547e-03 0.0000000000000000e+00  -5.9490465454415276e-01 -4.8633752534452679e-03 0.0000000000000000e+00  -7.2406860421392061e-01 -3.6037928508800832e-03 0.0000000000000000e+00  -9.3180757536758096e-01 -1.1006770472292704e-03 0.0000000000000000e+00  -8.8684862686167276e-01 -1.4031265764402612e-04 0.0000000000000000e+00  -9.9118414663952792e-01 -5.2258034935661127e-04 0.0000000000000000e+00  -9.9203571510668964e-01 5.2187517528268224e-04 0.0000000000000000e+00  -9.6522475891560211e-01 -6.0643987816533240e-04 0.0000000000000000e+00  -9.2407490704469286e-01 -2.1812698308018019e-03 0.0000000000000000e+00  -9.9969532397250027e-01 -3.0777004500381899e-05 0.0000000000000000e+00  -9.8995088508115126e-01 2.1957464468783599e-04 0.0000000000000000e+00  -9.6524727691882295e-01 -1.4318907245229329e-03 0.0000000000000000e+00  -9.9097474740000058e-01 -5.9172092332832049e-04 0.0000000000000000e+00  -7.2995986577301264e-01 2.4156125860818976e-03 0.0000000000000000e+00  -9.2426226956279989e-01 -1.8083218274068114e-03 0.0000000000000000e+00  -5.4019971561687941e-01 5.0707083808427256e-03 0.0000000000000000e+00  -1.9460198246287352e-01 2.5179557904196855e-03 0.0000000000000000e+00  -1.9403200145513949e-01 2.5495014432250218e-03 0.0000000000000000e+00  -5.2323915959888301e-01 -3.2713877282570039e-04 0.0000000000000000e+00  -6.2852595230694719e-01 -1.8245599573662452e-03 0.0000000000000000e+00  -7.2655648067170120e-01 2.6029147201224925e-03 0.0000000000000000e+00  -9.9315232457408975e-01 6.6276694076089493e-04 0.0000000000000000e+00  -9.6812833200747705e-01 -6.0324628004576608e-04 0.0000000000000000e+00  -9.9455775205476327e-01 4.7655298947713032e-04 0.0000000000000000e+00  -6.3980872038809178e-01 -8.8509191282575700e-04 0.0000000000000000e+00  -9.5231507700651996e-01 -5.0511413553672169e-04 0.0000000000000000e+00  -9.4760326142192552e-01 1.1105316178135483e-03 0.0000000000000000e+00  -8.1094166847113525e-01 2.9081487137466722e-03 0.0000000000000000e+00  -7.3351313644197236e-01 -3.9491620917401216e-03 0.0000000000000000e+00  -8.1235391780501054e-01 -5.1383256646841957e-04 0.0000000000000000e+00  -9.2172776932670675e-01 1.8223754238130274e-03 0.0000000000000000e+00  -2.1189444100790333e-01 5.4291885459437361e-03 0.0000000000000000e+00  -2.9322580885778149e-01 -4.2484237445818973e-03 0.0000000000000000e+00  -9.8015185133194382e-01 5.4529889151991306e-04 0.0000000000000000e+00  -9.7881065307622861e-01 1.1752761129635303e-03 0.0000000000000000e+00  -8.8654022043139646e-01 -1.4004559662562643e-03 0.0000000000000000e+00  -9.7693402023171227e-01 5.1255075258978267e-04 0.0000000000000000e+00  -9.9477509217405091e-01 -4.7478181626209315e-04 0.0000000000000000e+00  -4.5041468059875395e-01 3.3883320237613930e-03 0.0000000000000000e+00  -8.5950556655531396e-01 2.1549921208505740e-03 0.0000000000000000e+00  -8.9597088204583109e-01 3.4405554141795913e-03 0.0000000000000000e+00  -7.2551237331536556e-01 -4.0731219679253361e-04 0.0000000000000000e+00  -9.9358299890670332e-01 -3.9491994265597463e-04 0.0000000000000000e+00  -8.7136449793097404e-01 1.4340715396481407e-03 0.0000000000000000e+00  -9.2672473535897915e-01 1.0369678023949003e-03 0.0000000000000000e+00  -8.8121952584277941e-01 1.0554682982220065e-03 0.0000000000000000e+00  -9.3081818744037759e-01 1.3522847052846731e-03 0.0000000000000000e+00  -8.5054228423833245e-01 -2.6199457098627921e-03 0.0000000000000000e+00  -9.9915843207085198e-01 1.4594297992809313e-04 0.0000000000000000e+00  -9.9468613458127053e-01 -2.5926924684543939e-04 0.0000000000000000e+00  -7.0449692988013879e-01 1.6054141275350098e-03 0.0000000000000000e+00  -4.6921395356752721e-01 4.8340836111919194e-03 0.0000000000000000e+00  -8.7702508875376450e-01 -6.8642968362864210e-04 0.0000000000000000e+00  -8.0174102345095677e-01 2.6407135100139645e-03 0.0000000000000000e+00  -9.8790037269482389e-01 -7.0428665749133756e-04 0.0000000000000000e+00  -9.6697402739542559e-01 1.0265429312773522e-03 0.0000000000000000e+00  -9.2232354319490939e-01 -2.5062520062305027e-03 0.0000000000000000e+00  -9.7886438496530315e-01 -6.7298591034020694e-04 0.0000000000000000e+00  -9.7320277064395222e-01 9.8354381926454848e-04 0.0000000000000000e+00  -4.6028498137025253e-01 2.6546794564318021e-03 0.0000000000000000e+00  -7.6348599707292253e-01 1.6103040061240387e-03 0.0000000000000000e+00  -8.0622292225037562e-01 3.4380667656012109e-03 0.0000000000000000e+00  -9.9678974288141786e-01 4.1230937874914275e-04 0.0000000000000000e+00  -9.6610150873072187e-01 8.9098837286130661e-04 0.0000000000000000e+00  -9.6662127174441514e-01 -1.1141180190121502e-03 0.0000000000000000e+00  -7.1172878819606022e-01 1.7138137159251610e-03 0.0000000000000000e+00  -8.8552489073593632e-01 1.2377249665154189e-03 0.0000000000000000e+00  -7.9178324018721913e-01 -3.6615967874871203e-03 0.0000000000000000e+00  -8.2104152276721587e-01 -2.6384474079585857e-03 0.0000000000000000e+00  -9.8174717687662538e-01 -6.6623738224880213e-04 0.0000000000000000e+00  -7.5140090813803817e-01 1.5109980130147173e-03 0.0000000000000000e+00  -9.6244480502302787e-01 1.4435664311406859e-03 0.0000000000000000e+00  -9.8937046441030119e-01 1.7262365457371143e-04 0.0000000000000000e+00  -9.9553203507179755e-01 1.3257533185173642e-04 0.0000000000000000e+00  -8.6022333779970361e-01 1.9981928196744908e-03 0.0000000000000000e+00  -5.0551778274221926e-01 -7.5205213382961711e-04 0.0000000000000000e+00  -7.6580657359776394e-01 -5.6941764490525681e-04 0.0000000000000000e+00  -8.6250146141261042e-01 2.9056440325168353e-03 0.0000000000000000e+00  -3.1607607921448794e-01 -1.0533100194847766e-03 0.0000000000000000e+00  -1.9344053971287900e-01 -4.2481036575217068e-03 0.0000000000000000e+00  -8.4372961240420707e-01 -2.1481226066680237e-03 0.0000000000000000e+00  -9.3666372712767521e-01 8.6610344905550807e-04 0.0000000000000000e+00  -8.8711907899013720e-01 -6.6901033689556466e-04 0.0000000000000000e+00  -9.0884622344473676e-01 -8.6905692120053946e-04 0.0000000000000000e+00  -4.0543167975240524e-01 3.8992372856853381e-03 0.0000000000000000e+00  -9.9975688071875213e-01 1.6450663223332995e-04 0.0000000000000000e+00  -6.4849336446168770e-01 1.6150645441210254e-03 0.0000000000000000e+00  -5.3311069312421377e-01 -3.1345767016298792e-03 0.0000000000000000e+00  -6.0309611711520439e-01 -2.6375107308975604e-03 0.0000000000000000e+00  -6.1533123902620424e-01 -2.3617960192521270e-03 0.0000000000000000e+00  -6.5503270447414930e-01 -4.3523471665695146e-03 0.0000000000000000e+00  -8.6795923687268617e-01 1.4081583501048822e-03 0.0000000000000000e+00  -8.8326069461967005e-01 -2.3141716406198110e-03 0.0000000000000000e+00  -9.3240177594107154e-01 -8.4043901143972255e-04 0.0000000000000000e+00  -9.7013492033980819e-01 -6.5310508248556109e-04 0.0000000000000000e+00  -2.5520899017861010e-01 1.5465447306043101e-03 0.0000000000000000e+00  -3.4936123501383859e-01 1.8897889168562538e-03 0.0000000000000000e+00  -3.1261494169374426e-01 -1.7203502055692654e-03 0.0000000000000000e+00  -9.5695252264006359e-01 8.1734128113009064e-04 0.0000000000000000e+00  -9.5917166335801785e-01 -2.2660601376145451e-04 0.0000000000000000e+00  -7.9677630432254487e-01 -3.0811096121197978e-03 0.0000000000000000e+00  -5.4112031