<?xml version="1.0"?>
<VTKFile type="UnstructuredGrid"  version="0.1"  >
<UnstructuredGrid>
<Piece  NumberOfPoints="1385" NumberOfCells="2640">
<Points>
<DataArray  type="Float64"  NumberOfComponents="3"  format="ascii">0 0 0  1 0 0  1 1 0  0 1 0  0.5 0 0  1 0.5 0  0.5 1 0  0 0.5 0  0.5 0.5 0  0 0.25 0  0.25 0 0  0.25 1 0  0 0.75 0  1 0.25 0  0.75 0 0  1 0.75 0  0.75 1 0  0.7083333333333333 0.2916666666666667 0  0.2916666666666666 0.7083333333333334 0  0.375 0.25 0  0.75 0.625 0  0.2569444444444444 0.4652777777777778 0  0.5366379310344828 0.7535919540229885 0  0.1875 0.1875 0  0.8125 0.8125 0  0.869047619047619 0.375 0  0.1450441919191919 0.6052714646464646 0  0.375 0.8690476190476191 0  0.5526960784313725 0.1825980392156862 0  0.8385416666666666 0.1614583333333334 0  0.1614583333333333 0.8385416666666667 0  0.6736111111111112 0.4652777777777778 0  0.1367521367521368 0.3477564102564102 0  0.6570970491253563 0.8648656830417855 0  0.5102479397556124 0.3386260301221938 0  0.3654513888888889 0.5737847222222222 0  0.6929750044954185 0.1362784921584263 0  0.388576102743835 0.411911725237599 0  0.6091269841269842 0.5942460317460317 0  0.875 0.6875 0  0.427278890279516 0.119889445139758 0  0.8544456845238095 0.5213913690476191 0  0.125 0 0  0 0.125 0  1 0.875 0  0.875 1 0  0.1280008648150532 0.4769292340226777 0  0.2695382451711197 0.3321750950221553 0  0.7031567235715964 0.7447810921428012 0  0.625 0 0  0.375 0 0  0.125 1 0  0.875 0 0  0 0.375 0  0 0.625 0  1 0.375 0  0.375 1 0  1 0.125 0  0 0.875 0  0.625 1 0  1 0.625 0  0.2979288363930608 0.1201429454643536 0  0.410919540229885 0.7484605911330049 0  0.5325041980395562 0.878905151526474 0  0.4831670727569156 0.6331060043826487 0  0.1735997378973042 0.7204747378973043 0  0.2534919507575758 0.5772372159090909 0  0.2633928571428572 0.8876488095238095 0  0.8199404761904761 0.2730654761904762 0  0.75830270586982 0.3919383189517417 0  0.5750282248382511 0.4237522353023667 0  0.6008360210023379 0.2794828358598495 0  0.08163442644334186 0.6821295860397322 0  0.08333333333333333 0.1875 0  0.2028380815996574 0.08844602719988583 0  0.2766521142611967 0.2325436572164097 0  0.90625 0.78125 0  0.890625 0.890625 0  0.7545696325008384 0.8973565441669461 0  0.5625 0.08086590340834317 0  0.09077380952380953 0.09077380952380952 0  0.4610923478694773 0.209034015149656 0  0.7542527598351648 0.5248380520595106 0  0.6459235536037465 0.3619913988405765 0  0.7560381768882634 0.20506142233852 0  0.07073252688172042 0.8125 0  0.0924753097241701 0.9078102849914793 0  0.9292674731182795 0.1875 0  0.9075246902758297 0.09218971500852073 0  0.8125 0.07073252688172045 0  0.2400955776842301 0.7869705776842302 0  0.9121050213379069 0.2781978201831695 0  0.7916878157143976 0.7239689078571988 0  0.9345238095238094 0.4375 0  0.4375 0.9345238095238095 0  0.3725616989755203 0.6651895248862173 0  0.06536271996350887 0.5625 0  0.9348362560379583 0.5625 0  0.456646798987055 0.8277247094351965 0  0.1875 0.9355758238725954 0  0.6169761231634859 0.6939779188977889 0  0.6226854751147515 0.7827911461419014 0  0.3305695598137626 0.7901697871282585 0  0.5865305325818898 0.5101085479043448 0  0.6622701297028378 0.2177663989757395 0  0.1354166666666667 0.2591702279202279 0  0 0.3125 0  0.2094429575680048 0.3936361846162499 0  0.836666296419157 0.607917407161686 0  0.6875 1 0  0.214261555450504 0.6492551722020035 0  0 0.4375 0  0.07731537126068377 0.40625 0  0.3427725432967068 0.4879566233699599 0  0.3550792513951871 0.3331953632609953 0  0.4462473953896857 0.2887834789342508 0  0.4747801464819794 0.417386052030127 0  0.8229836475148948 0.4443292349237342 0  0.7322605135514757 0.8199240278289671 0  0.6756431877205955 0.5468989748126787 0  0.1968419507215863 0.5194573482612496 0  0.3285590277777778 0.9345238095238095 0  0.8125 1 0  0.4198917601920009 0.5134893045331258 0  0.5232405503206691 0.2595791787880157 0  1 0.9375 0  0.1987510870015086 0.3025185951894431 0  0.5625 1 0  0.6005390654136388 0.9228110509230952 0  0.6411254848194414 0.07704872765442942 0  0.3357233162523242 0.1855113224530532 0  0.6730653396610877 0.6393887462324165 0  0.310966987234063 0.6240019765311626 0  0.7368737836204349 0.07457755202327881 0  0.6192316414418171 0.1485238406378594 0  0.5432429670607106 0.678552703844006 0  0.4754371679695679 0.7103946803120881 0  0.07501324890749672 0.3043839897335739 0  0.5358146975860403 0.5688321463205916 0  0.3115271739500156 0.3982137365971444 0  0.3625191397122174 0.0767854603650549 0  0.5024029442563831 0.1264128223758444 0  0.4375 0 0  0.4699946908887376 0.06379961173775725 0  0.9375 0.71875 0  0.9272105898044465 0.635671179608893 0  0.9375 1 0  0.6690971819568612 0.9331530898202766 0  0.1073454944778885 0.7499206387638554 0  0.8699082999280406 0.2232403652524313 0  0.5773118091863964 0.3548027349159383 0  0.1354166666666667 0.1428571428571428 0  0.3125 0 0  0.8241684193077341 0.9257452995055244 0  0.4352314948354036 0.3586940847489378 0  0.4351301473778832 0.5819726043539077 0  0.8073232928518163 0.3419398170341962 0  0.7775949246947366 0.1298519409204575 0  0.6875 0 0  0.7413513991851041 0.457933324954483 0  0.939453125 0.841796875 0  0.5630355154606987 0.8171875156478349 0  0.9345238095238095 0.3461466592368577 0  0.9375 0 0  1 0.0625 0  0.0625 1 0  0 0.9375 0  0.06552178593177167 0.4969053669623468 0  0.1424866619031703 0.4130277709291224 0  0.1275287182444726 0.5422946908002588 0  0.2637686595586339 0.06413888464529549 0  0.2524263535491086 0.1697437503243817 0  0.7367218397988525 0.6888573970660841 0  0.0625 0 0  0 0.0625 0  0.8463594539285995 0.7578283617857982 0  0.3128751192101563 0.2851997374369947 0  0.4015281788351144 0.1806421385113692 0  0.1910251795116588 0.4553332197174453 0  0.287797471442006 0.5222621440543902 0  0.3962628745986055 0.8097380085535307 0  0.3505895299554843 0.7304878890838692 0  0.5019151500495276 0.9356042615328103 0  0.9374389419410134 0.4999931039076005 0  0.3125 1 0  0.1875 1 0  1 0.5625 0  0.4375 1 0  1 0.3125 0  1 0.4375 0  0.8125 0 0  1 0.1875 0  0.5625 0 0  0.1875 0 0  0 0.1875 0  0 0.5625 0  0 0.6875 0  0 0.8125 0  1 0.6875 0  1 0.8125 0  0.8021696218581627 0.6612893947866073 0  0.06154922295426143 0.6239401126946708 0  0.9359375 0.9359375 0  0.4666158024849896 0.7691515918155014 0  0.2318201265217025 0.7064974250277525 0  0.1565954253579966 0.6635489312486841 0  0.1598132503680848 0.7787147500325552 0  0.3146529991605639 0.8510876378205265 0  0.1461873209418733 0.05982804528877814 0  0.06109554988524315 0.2446551776247686 0  0.8054950308560754 0.5564226538848541 0  0.470541749491976 0.8853316336952531 0  0.6948472567465137 0.4042308563372457 0  0.8802828472348889 0.4658893256343853 0  0.6788075634946739 0.7974194205806069 0  0.2155048659603867 0.2428201584940968 0  0.8131223143423806 0.2132171049028394 0  0.4330798005432235 0.6671274900735726 0  0.6015279126162613 0.2187368078743274 0  0.8061636571464289 0.8703766630361714 0  0.7008230445061776 0.3478568388444072 0  0.8638466246958771 0.3147095987735538 0  0.204801534004265 0.8789209409594009 0  0.2449006736431132 0.9424182882803838 0  0.7611268409371427 0.2643056884799992 0  0.7552800864046191 0.7678006649959446 0  0.5983639638906616 0.864113435029236 0  0.1956559506814437 0.577281203577426 0  0.3527670268164207 0.1320469097565204 0  0.7530364577483248 0.3262386077083089 0  0.4535919187979363 0.4690107087451527 0  0.8824869791666666 0.8336588541666666 0  0.8814453125 0.9451171875 0  0.5582987942628019 0.622421666543858 0  0.6817532446064828 0.6939001801354731 0  0.3830295138888889 0.9450968952922078 0  0.4140603937012541 0.05211333372716105 0  0.5535864501303013 0.3060591985391672 0  0.6560130086346878 0.2729726562211558 0  0.890203140221684 0.5948314305427268 0  0.7043857725999024 0.593980890020804 0  0.5105843922695152 0.8016828014338627 0  0.05365910753708378 0.7315110031682004 0  0.616904573672261 0.4621186633436136 0  0.5338511646455415 0.387875898899613 0  0.5231769258947843 0.4477682463140762 0  0.650302973237622 0.7370722302085519 0  0.3927483139621257 0.4662414504529014 0  0.8034595960585199 0.4972538342758211 0  0.7738337841682438 0.9496376207663251 0  0.7193737507158268 0.954685447650112 0  0.482525916480686 0.5528257169991676 0  0.2533501157346781 0.2809495420003238 0  0.3118487924482243 0.5702930126570319 0  0.6257598847669529 0.4104163315430518 0  0.1354166666666667 0.1955605158730158 0  0.04166666666666666 0.15625 0  0.3956448985530264 0.6174149462065157 0  0.8102897701818546 0.3938784238208349 0  0.2641154190013625 0.8344469561943118 0  0.642852220770013 0.5068794586563659 0  0.05271458179508221 0.355846947336007 0  0.7021551360070266 0.8921457280225779 0  0.5692125776683765 0.1328512638850284 0  0.5206162811937602 0.04865158770992991 0  0.6001838442201555 0.04540556991297563 0  0.2597716608242787 0.4118346398477178 0  0.4040584599473195 0.3179589136784675 0  0.1480337679295207 0.8941560631483065 0  0.1344356707112281 0.9466251177415842 0  0.7114696411829317 0.4983917389078826 0  0.7585704698442475 0.5751926345944629 0  0.2189131956390871 0.04022068508159698 0  0.2476935455192043 0.1123642267635843 0  0.185995005654517 0.1365524537205238 0  0.6223414373308711 0.643380839165121 0  0.5732602596637543 0.7190051747306219 0  0.268358222364537 0.6586246524467934 0  0.3265879848129173 0.2369791782191225 0  0.1267095595787346 0.7034787238999181 0  0.1115202922226038 0.6421997933884982 0  0.3128688392940203 0.07260997451790079 0  0.550724900485678 0.9253360991633187 0  0.7142608810459105 0.2384904702214873 0  0.7045869185243887 0.1871826897887429 0  0.890625 0.734375 0  0.953125 0.765625 0  0.2111812642821677 0.8286209446459138 0  0.9590293078204457 0.09375 0  0.953431269039847 0.1435719386408004 0  0.04097069217955424 0.90625 0  0.04656873096015299 0.8564280613591996 0  0.1078743037981226 0.8541621766048062 0  0.8921256962018773 0.1458378233951939 0  0.8521576979194619 0.1084496634207678 0  0.8655663982740958 0.05464346096571447 0  0.04005659640905543 0.09375 0  0.1001448316533417 0.04246776244228261 
[...]
<PointData  Vectors="f_8394-3"> 
<DataArray  type="Float64"  Name="f_8394-3"  NumberOfComponents="3" format="ascii">-1.0017469495435929e+00 -1.0017445319240572e+00 0.0000000000000000e+00  -5.4096627938726938e-01 -5.4103289674906485e-01 0.0000000000000000e+00  4.1677316652935248e-01 4.1677316652910362e-01 0.0000000000000000e+00  -5.4092261911010631e-01 -5.4101978110847926e-01 0.0000000000000000e+00  -8.7877298254772773e-01 -8.8191400205033088e-01 0.0000000000000000e+00  -6.7893070503343270e-02 -7.0800066754211688e-02 0.0000000000000000e+00  -7.0780055051028606e-02 -6.8143142520567565e-02 0.0000000000000000e+00  -8.8165030854054582e-01 -8.7867233503576680e-01 0.0000000000000000e+00  -5.4106970358931616e-01 -5.4113944578779516e-01 0.0000000000000000e+00  -9.7326678627975638e-01 -9.7030813195805610e-01 0.0000000000000000e+00  -9.7027399380425150e-01 -9.7340874599229166e-01 0.0000000000000000e+00  -3.1574177670964571e-01 -3.1287968100062669e-01 0.0000000000000000e+00  -7.3525176723295593e-01 -7.3270605801680622e-01 0.0000000000000000e+00  -3.1305898938411764e-01 -3.1573086314362803e-01 0.0000000000000000e+00  -7.3273353603584113e-01 -7.3499628811139561e-01 0.0000000000000000e+00  1.8176889488853618e-01 1.7846598048873880e-01 0.0000000000000000e+00  1.7849194319215775e-01 1.8172519812135901e-01 0.0000000000000000e+00  -5.4106935236233422e-01 -5.4119342493085132e-01 0.0000000000000000e+00  -5.4112617746861336e-01 -5.4097435140446171e-01 0.0000000000000000e+00  -8.1206909667383320e-01 -8.1215092178105353e-01 0.0000000000000000e+00  -1.9476174295005225e-01 -1.9505159385307530e-01 0.0000000000000000e+00  -7.5141056340976409e-01 -7.5141611993841684e-01 0.0000000000000000e+00  -2.7730891130592616e-01 -2.7713240597201799e-01 0.0000000000000000e+00  -9.3174050676645703e-01 -9.3180759625503917e-01 0.0000000000000000e+00  5.4061125100986207e-02 5.4386771317976750e-02 0.0000000000000000e+00  -3.2139680392708353e-01 -3.2155194963903377e-01 0.0000000000000000e+00  -7.3261546002405853e-01 -7.3251180764310919e-01 0.0000000000000000e+00  -3.2147388848021652e-01 -3.2131473022155510e-01 0.0000000000000000e+00  -7.4269595945566302e-01 -7.4263345471667175e-01 0.0000000000000000e+00  -5.4109472743766140e-01 -5.4113291212182479e-01 0.0000000000000000e+00  -5.4125525745187408e-01 -5.4101785760314536e-01 0.0000000000000000e+00  -4.1922190592854469e-01 -4.1920292513913149e-01 0.0000000000000000e+00  -8.8620304352378376e-01 -8.8613999163064183e-01 0.0000000000000000e+00  -4.8893256419064487e-02 -4.8924186189579402e-02 0.0000000000000000e+00  -6.6168626496628380e-01 -6.6178410391141607e-01 0.0000000000000000e+00  -5.9119258321647705e-01 -5.9133431370421219e-01 0.0000000000000000e+00  -6.7633805035341732e-01 -6.7651201318133602e-01 0.0000000000000000e+00  -6.9726459547291264e-01 -6.9741289146734442e-01 0.0000000000000000e+00  -3.5966832593446341e-01 -3.5980676860976391e-01 0.0000000000000000e+00  -8.2109106815594426e-03 -8.4400472300288354e-03 0.0000000000000000e+00  -8.5532853577750567e-01 -8.5515443282026649e-01 0.0000000000000000e+00  -1.9389124615037770e-01 -1.9394159803466385e-01 0.0000000000000000e+00  -9.9353333028808100e-01 -9.9740919663568506e-01 0.0000000000000000e+00  -9.9753468803590040e-01 -9.9360722756174713e-01 0.0000000000000000e+00  3.0376542080088642e-01 2.9992033768245452e-01 0.0000000000000000e+00  2.9995049802856222e-01 3.0353248797941956e-01 0.0000000000000000e+00  -8.2382935846347172e-01 -8.2367327455112638e-01 0.0000000000000000e+00  -8.2553483624047863e-01 -8.2556687123144235e-01 0.0000000000000000e+00  -1.2289421827432137e-01 -1.2261742776476489e-01 0.0000000000000000e+00  -8.1214155910745889e-01 -8.1503649776715925e-01 0.0000000000000000e+00  -9.3169818799614323e-01 -9.3482713960798081e-01 0.0000000000000000e+00  -4.3178048914928135e-01 -4.2934342213884980e-01 0.0000000000000000e+00  -6.4185730772089911e-01 -6.4486911726941698e-01 0.0000000000000000e+00  -9.3497160956187320e-01 -9.3181912813500190e-01 0.0000000000000000e+00  -8.1504832383641701e-01 -8.1209742128470441e-01 0.0000000000000000e+00  -1.9194264665072272e-01 -1.9483832138743720e-01 0.0000000000000000e+00  -1.9478850973152145e-01 -1.9194714852544181e-01 0.0000000000000000e+00  -4.2951018442133937e-01 -4.3173395656985664e-01 0.0000000000000000e+00  -6.4460706272926482e-01 -6.4184861815793814e-01 0.0000000000000000e+00  5.4212194700292274e-02 5.7242258170698522e-02 0.0000000000000000e+00  5.7002369266752742e-02 5.4244214490042277e-02 0.0000000000000000e+00  -9.1517367259465543e-01 -9.1534636309353246e-01 0.0000000000000000e+00  -4.0045850956778406e-01 -4.0035003776175737e-01 0.0000000000000000e+00  -1.5889324546613290e-01 -1.5894240874207807e-01 0.0000000000000000e+00  -4.3976722554151770e-01 -4.3974498762097458e-01 0.0000000000000000e+00  -6.2718672047570745e-01 -6.2706290358264671e-01 0.0000000000000000e+00  -6.7532146817537142e-01 -6.7531437676951522e-01 0.0000000000000000e+00  -4.0803507461229183e-01 -4.0813896578576980e-01 0.0000000000000000e+00  -4.6049907433880455e-01 -4.6062300882820778e-01 0.0000000000000000e+00  -4.0878064447606011e-01 -4.0897146089453729e-01 0.0000000000000000e+00  -5.4212092751543761e-01 -5.4212954621576970e-01 0.0000000000000000e+00  -6.3797259288314501e-01 -6.3779822360071425e-01 0.0000000000000000e+00  -7.2350825847271238e-01 -7.2326728303874854e-01 0.0000000000000000e+00  -9.6516932529724186e-01 -9.6447083271750489e-01 0.0000000000000000e+00  -9.5906290547622142e-01 -9.5949819229373146e-01 0.0000000000000000e+00  -8.7443180669698739e-01 -8.7429947505951744e-01 0.0000000000000000e+00  1.1679775363474998e-01 1.1625526413266812e-01 0.0000000000000000e+00  2.0897223524959985e-01 2.0912680141485765e-01 0.0000000000000000e+00  8.1036111068838929e-02 8.1152908274393726e-02 0.0000000000000000e+00  -8.0129360654891502e-01 -8.0141976635301904e-01 0.0000000000000000e+00  -9.8463517782853993e-01 -9.8471915116878961e-01 0.0000000000000000e+00  -7.8490135337168399e-01 -7.8498791958706748e-01 0.0000000000000000e+00  -2.8806419477302586e-01 -2.8785603057401637e-01 0.0000000000000000e+00  -5.3442725937778313e-01 -5.3440851837503911e-01 0.0000000000000000e+00  -5.7342378267474170e-01 -5.7340940200994561e-01 0.0000000000000000e+00  -6.3607065065496282e-01 -6.3554921345607829e-01 0.0000000000000000e+00  -5.4087263455268697e-01 -5.4052819675778829e-01 0.0000000000000000e+00  -4.3866827620491372e-01 -4.3923578311945011e-01 0.0000000000000000e+00  -5.4086777943757647e-01 -5.4136399789961520e-01 0.0000000000000000e+00  -6.3582209691059988e-01 -6.3587208930019434e-01 0.0000000000000000e+00  -5.1802977778486248e-01 -5.1828329465487588e-01 0.0000000000000000e+00  -3.7168021363841253e-01 -3.7202420368209144e-01 0.0000000000000000e+00  -5.5090582830654988e-02 -5.5283609401495064e-02 0.0000000000000000e+00  -1.9710128542284416e-01 -1.9776947525468239e-01 0.0000000000000000e+00  -1.9776318839567822e-01 -1.9705995602497975e-01 0.0000000000000000e+00  -5.0882289114546508e-01 -5.0879480453583048e-01 0.0000000000000000e+00  -8.1084396718799023e-01 -8.1053453503013140e-01 0.0000000000000000e+00  -7.2927661560097501e-02 -7.3366682673708744e-02 0.0000000000000000e+00  -2.8290444714633928e-01 -2.8301274766678503e-01 0.0000000000000000e+00  -4.3369444239930599e-01 -4.3277566045749016e-01 0.0000000000000000e+00  -2.5731151950243641e-01 -2.5728179463390943e-01 0.0000000000000000e+00  -1.6490954107480996e-01 -1.6470551504595859e-01 0.0000000000000000e+00  -4.3572698293124923e-01 -4.3564052805505593e-01 0.0000000000000000e+00  -4.5729382533819263e-01 -4.5725853087327206e-01 0.0000000000000000e+00  -6.3794451494532700e-01 -6.3806771172168752e-01 0.0000000000000000e+00  -9.2440221696033453e-01 -9.2428481992831846e-01 0.0000000000000000e+00  -9.5566488243793113e-01 -9.5276313821777991e-01 0.0000000000000000e+00  -8.2479404004952261e-01 -8.2475721963163839e-01 0.0000000000000000e+00  -1.2595675350044330e-01 -1.2612576072968060e-01 0.0000000000000000e+00  1.1658968228599428e-01 1.1971164953145266e-01 0.0000000000000000e+00  -6.5068541416627235e-01 -6.5061407638601365e-01 0.0000000000000000e+00  -9.0956470108482357e-01 -9.0714312790058149e-01 0.0000000000000000e+00  -8.8692321803573271e-01 -8.8648439823264380e-01 0.0000000000000000e+00  -6.7538181480931836e-01 -6.7547664781456440e-01 0.0000000000000000e+00  -7.7318979088565842e-01 -7.7345158938005110e-01 0.0000000000000000e+00  -7.4288462671734445e-01 -7.4289088610497889e-01 0.0000000000000000e+00  -6.2872473341157453e-01 -6.2871548565603119e-01 0.0000000000000000e+00  -2.9926547849335072e-01 -2.9933737141305172e-01 0.0000000000000000e+00  -1.8656889329152080e-02 -1.8510528868922554e-02 0.0000000000000000e+00  -3.4174161559969618e-01 -3.4167040885988642e-01 0.0000000000000000e+00  -7.5536336825992456e-01 -7.5537069001538626e-01 0.0000000000000000e+00  -3.0330206071428967e-01 -3.0281428015021994e-01 0.0000000000000000e+00  2.3971083527324966e-01 2.4316526766210175e-01 0.0000000000000000e+00  -5.9599800660669611e-01 -5.9574797955382786e-01 0.0000000000000000e+00  -7.0982343501965417e-01 -7.0984653752384941e-01 0.0000000000000000e+00  3.6263108042048409e-01 3.5902493327049345e-01 0.0000000000000000e+00  -8.7836990705063756e-01 -8.7832303793420952e-01 0.0000000000000000e+00  -8.3102650596860277e-03 -5.4420723335666457e-03 0.0000000000000000e+00  -4.7696836251842289e-02 -4.7132293786359858e-02 0.0000000000000000e+00  -7.5390134647248264e-01 -7.5450877694645380e-01 0.0000000000000000e+00  -8.6834220084192748e-01 -8.6839184268383007e-01 0.0000000000000000e+00  -2.5592192541816827e-01 -2.5603181426976979e-01 0.0000000000000000e+00  -5.9486329752288092e-01 -5.9479227820671010e-01 0.0000000000000000e+00  -6.8942167320399927e-01 -6.8990647922988146e-01 0.0000000000000000e+00  -7.2041842875888640e-01 -7.2041881146087738e-01 0.0000000000000000e+00  -3.4247606799980340e-01 -3.4252543537205538e-01 0.0000000000000000e+00  -3.7630149050540795e-01 -3.7602921705744441e-01 0.0000000000000000e+00  -9.3059187934851972e-01 -9.3029757124208767e-01 0.0000000000000000e+00  -4.5008272288661871e-01 -4.5011727002066781e-01 0.0000000000000000e+00  -7.5960808739231322e-01 -7.5956949736277790e-01 0.0000000000000000e+00  -9.0630503754362501e-01 -9.0658675570004621e-01 0.0000000000000000e+00  -8.0988680696135884e-01 -8.0982857430102351e-01 0.0000000000000000e+00  -9.0707358426638129e-01 -9.1024823521474030e-01 0.0000000000000000e+00  -8.6196338921399507e-01 -8.6285040586918194e-01 0.0000000000000000e+00  8.6233258396103768e-02 8.5367655222949507e-02 0.0000000000000000e+00  -7.4463742644512859e-03 -8.0693228106117412e-03 0.0000000000000000e+00  3.5910544858164356e-01 3.6268125641919330e-01 0.0000000000000000e+00  3.1521930934634915e-02 3.2146981203062412e-02 0.0000000000000000e+00  -6.5528454665742086e-01 -6.5560754251735753e-01 0.0000000000000000e+00  -4.6013334469516798e-01 -4.6032547959558096e-01 0.0000000000000000e+00  -5.9701815637670586e-01 -5.9709496378875349e-01 0.0000000000000000e+00  -9.6265858151404549e-01 -9.6281319504717056e-01 0.0000000000000000e+00  -9.5285828387173277e-01 -9.5601347558492089e-01 0.0000000000000000e+00  1.7834869008001730e-01 1.7887197752409140e-01 0.0000000000000000e+00  -7.0201054714095390e-01 -7.0196419439304114e-01 0.0000000000000000e+00  -5.2658367348465118e-01 -5.2663882168242526e-01 0.0000000000000000e+00  -4.0976850065820336e-01 -4.0981986196302628e-01 0.0000000000000000e+00  -6.1666584689885273e-01 -6.1671885614189426e-01 0.0000000000000000e+00  -7.7389348002329117e-01 -7.7664506790700938e-01 0.0000000000000000e+00  -3.6357851104977584e-01 -3.6363909918511172e-01 0.0000000000000000e+00  2.1013241956772943e-01 2.0924390835660009e-01 0.0000000000000000e+00  -1.8980148002268488e-01 -1.8964663648427166e-01 0.0000000000000000e+00  -2.8587850260909120e-01 -2.8649093337026232e-01 0.0000000000000000e+00  -5.9258968266176093e-01 -5.9462900876937486e-01 0.0000000000000000e+00  -4.8561260138337192e-01 -4.8735322297368655e-01 0.0000000000000000e+00  -4.8730482018970933e-01 -4.8538313030558367e-01 0.0000000000000000e+00  -5.9473554721970312e-01 -5.9261360013331255e-01 0.0000000000000000e+00  -8.4779391625451750e-01 -8.4743180700457121e-01 0.0000000000000000e+00  -8.5088220776701551e-01 -8.5101235796183572e-01 0.0000000000000000e+00  -7.8502419877470642e-01 -7.8515755788807762e-01 0.0000000000000000e+00  -9.4814480072843876e-01 -9.4882811607009776e-01 0.0000000000000000e+00  -9.1365218479753063e-01 -9.1362076080021448e-01 0.0000000000000000e+00  -1.4490687597249824e-01 -1.4510666777023723e-01 0.0000000000000000e+00  -9.9940694836124377e-01 -1.0036625761459099e+00 0.0000000000000000e+00  -1.0036797977865863e+00 -9.9940419394184632e-01 0.0000000000000000e+00  3.3520328322647994e-02 3.3208278729265191e-02 0.0000000000000000e+00  -8.2754908675871108e-01 -8.2777638387816543e-01 0.0000000000000000e+00  -8.3651324442236552e-01 -8.3652216302658400e-01 0.0000000000000000e+00  -7.9952199883752029e-01 -7.9931572404931428e-01 0.0000000000000000e+00  -6.9045239121170177e-01 -6.9048574942361918e-01 0.0000000000000000e+00  -3.5723625731474429e-01 -3.5735041779429838e-01 0.0000000000000000e+00  -4.7113045315537372e-01 -4.7099496520060846e-01 0.0000000000000000e+00  -1.3311094776293489e-01 -1.3228718582972507e-01 0.0000000000000000e+00  -1.3244651324227474e-01 -1.3321229373538684e-01 0.0000000000000000e+00  -2.5574778700489692e-01 -2.5285873966311584e-01 0.0000000000000000e+00  -3.7450203895049783e-01 -3.7182010027530865e-01 0.0000000000000000e+00  -5.5031225830885211e-03 -8.3668722954374254e-03 0.0000000000000000e+00  -1.3305141633745587e-01 -1.3037277640044015e-01 0.0000000000000000e+00  -2.5296437222113538e-01 -2.5576289997353568e-01 0.0000000000000000e+00  -1.3024676252920162e-01 -1.3309869422876755e-01 0.0000000000000000e+00  -6.8859788704309166e-01 -6.9145188791593137e-01 0.0000000000000000e+00  -3.7196855001581314e-01 -3.7445888745155331e-01 0.0000000000000000e+00  -8.4703388265159230e-01 -8.5000033072671854e-01 0.0000000000000000e+00  -9.8385484010776825e-01 -9.8702632109137889e-01 0.0000000000000000e+00  -9.8733936262981081e-01 -9.8382783184605405e-01 0.0000000000000000e+00  -8.5054427045268344e-01 -8.4722717865023300e-01 0.0000000000000000e+00  -7.7628190823858256e-01 -7.7395454663124519e-01 0.0000000000000000e+00  -6.9153993862143548e-01 -6.8869573093209391e-01 0.0000000000000000e+00  1.1952896747246841e-01 1.1658413080088355e-01 0.0000000000000000e+00  2.4325962134817491e-01 2.3976804558655707e-01 0.0000000000000000e+00  -1.0711424225816954e-01 -1.0748377826612331e-01 0.0000000000000000e+00  -7.7597534615934183e-01 -7.7486670981383421e-01 0.0000000000000000e+00  2.9775095556386505e-01 2.9764812132989416e-01 0.0000000000000000e+00  -3.2943315368343884e-01 -3.2912986128427907e-01 0.0000000000000000e+00  -5.9203025205495163e-01 -5.9182665192637340e-01 0.0000000000000000e+00  -6.8317051541644735e-01 -6.8306439086476078e-01 0.0000000000000000e+00  -5.9192670686207061e-01 -5.9203285052097954e-01 0.0000000000000000e+00  -3.9463730498759070e-01 -3.9456168891317778e-01 0.0000000000000000e+00  -9.7974972728376164e-01 -9.8125058801409659e-01 0.0000000000000000e+00  -9.5591187104115627e-01 -9.5470436087796129e-01 0.0000000000000000e+00  -2.0759469648859147e-01 -2.0753815174578949e-01 0.0000000000000000e+00  -2.1361537527013627e-01 -2.1350981242835965e-01 0.0000000000000000e+00  -4.5509517217644757e-01 -4.5512549666110846e-01 0.0000000000000000e+00  -2.2295524191543875e-01 -2.2305179058223229e-01 0.0000000000000000e+00  -9.4706654153522890e-02 -9.4482959577260425e-02 0.0000000000000000e+00  -8.9802982211244720e-01 -8.9810608857522300e-01 0.0000000000000000e+00  -5.1869679133787672e-01 -5.1859879450157598e-01 0.0000000000000000e+00  -4.5412790812616899e-01 -4.5407407360798518e-01 0.0000000000000000e+00  -6.8300018644205762e-01 -6.8313141854879789e-01 0.0000000000000000e+00  1.0558834104035210e-01 1.0563054798303925e-01 0.0000000000000000e+00  -4.9942061735805154e-01 -4.9950091303131616e-01 0.0000000000000000e+00  -3.8273629993561215e-01 -3.8289562524546256e-01 0.0000000000000000e+00  -4.6875882867848601e-01 -4.6862387264624467e-01 0.0000000000000000e+00  -3.7475549651740742e-01 -3.7372460927933776e-01 0.0000000000000000e+00  -5.1952863246589465e-01 -5.1954210077068708e-01 0.0000000000000000e+00  -4.7773104645308304e-02 -4.7643540809482271e-02 0.0000000000000000e+00  -1.0841737556626602e-01 -1.0823958995970219e-01 0.0000000000000000e+00  -7.1704298700217128e-01 -7.1682513742118925e-01 0.0000000000000000e+00  -8.8580778203053234e-01 -8.8597746313869530e-01 0.0000000000000000e+00  -4.7272703257454896e-01 -4.7270550162199926e-01 0.0000000000000000e+00  -6.0452063031349246e-01 -6.0463285701324254e-01 0.0000000000000000e+00  1.4496522030504977e-01 1.4513980492373990e-01 0.0000000000000000e+00  2.5301768881248621e-01 2.5461342187035896e-01 0.0000000000000000e+00  -3.8085650714347863e-01 -3.8093218776456650e-01 0.0000000000000000e+00  -1.9436711271986590e-01 -1.9422149398248259e-01 0.0000000000000000e+00  -2.4056753732410918e-01 -2.3978207344108704e-01 0.0000000000000000e+00  -8.9482694586470990e-01 -8.9583021479356317e-01 0.0000000000000000e+00  -6.5371620538007358e-01 -6.5371539106662779e-01 0.0000000000000000e+00  -5.9941231098920389e-01 -5.9950294248855074e-01 0.0000000000000000e+00  -8.5720919024244585e-02 -8.5783073440786339e-02 0.0000000000000000e+00  -2.6951261948705885e-01 -2.6965700663975356e-01 0.0000000000000000e+00  -2.5605005163584083e-01 -2.5591881736211802e-01 0.0000000000000000e+00  -7.0929887613717024e-01 -7.0838006278994792e-01 0.0000000000000000e+00  -4.7303318778685122e-01 -4.7283470805631850e-01 0.0000000000000000e+00  -6.0537923037116659e-01 -6.0538906189484409e-01 0.0000000000000000e+00  -5.6537200802276810e-01 -5.6536152446250609e-01 0.0000000000000000e+00  -1.8276065555570178e-01 -1.8263269261646012e-01 0.0000000000000000e+00  -6.5413313318313360e-01 -6.5420386638233285e-01 0.0000000000000000e+00  -2.6706418961082901e-01 -2.6717394327935401e-01 0.0000000000000000e+00  1.5212502094030922e-01 1.5367960382455656e-01 0.0000000000000000e+00  1.0318448716739045e-01 1.0480733876539745e-01 0.0000000000000000e+00  -5.1098999902441045e-01 -5.1097927884715166e-01 0.0000000000000000e+00  -8.6193657187838180e-01 -8.6195173969800054e-01 0.0000000000000000e+00  -6.3641263896384881e-01 -6.3638027259941732e-01 0.0000000000000000e+00  -5.1028884811071173e-01 -5.1035401546296244e-01 0.0000000000000000e+00  -9.4709000844643121e-01 -9.4685482767296381e-01 0.0000000000000000e+00  -9.8385816062063625e-01 -9.8143130982834614e-01 0.0000000000000000e+00  -5.2996879571388678e-01 -5.3019115899812785e-01 0.0000000000000000e+00  -3.5904645755354059e-01 -3.5908857179347792e-01 0.0000000000000000e+00  -4.5544237482818251e-01 -4.5559201225510199e-01 0.0000000000000000e+00  -4.0943161577579817e-01 -4.0923333800118733e-01 0.0000000000000000e+00  -9.2006258544326269e-01 -9.1916685988595637e-01 0.0000000000000000e+00  2.3489996060559345e-02 2.3506305013790009e-02 0.0000000000000000e+00  -7.6458479151219827e-01 -7.6460831196993162e-01 0.0000000000000000e+00  -8.4326127796073591e-01 -8.4490050373507286e-01 0.0000000000000000e+00  -7.9977181475019066e-01 -8.0141394390076870e-01 0.0000000000000000e+00  -7.8397652514696603e-01 -7.8382152682520934e-01 0.0000000000000000e+00  -7.5163221293556148e-01 -7.5145660405920600e-01 0.0000000000000000e+00  -5.0515111357534292e-01 -5.0484779018862158e-01 0.0000000000000000e+00  -4.7103414401109323e-01 -4.7001150217709964e-01 0.0000000000000000e+00  -3.5367947580784487e-01 -3.5356577373386494e-01 0.0000000000000000e+00  -2.3515517151222809e-01 -2.3516440566064878e-01 0.0000000000000000e+00  -9.6789760984931117e-01 -9.6978894282153005e-01 0.0000000000000000e+00  -9.3709213044040829e-01 -9.3736445573947913e-01 0.0000000000000000e+00  -9.4962007668581849e-01 -9.4977008517453831e-01 0.0000000000000000e+00  -3.0078581689805578e-01 -3.0090686027869323e-01 0.0000000000000000e+00  -2.7531416643574297e-01 -2.7529180649255325e-01 0.0000000000000000e+00