<?xml version="1.0"?>
<VTKFile type="UnstructuredGrid"  version="0.1"  >
<UnstructuredGrid>
<Piece  NumberOfPoints="1385" NumberOfCells="2640">
<Points>
<DataArray  type="Float64"  NumberOfComponents="3"  format="ascii">0 0 0  1 0 0  1 1 0  0 1 0  0.5 0 0  1 0.5 0  0.5 1 0  0 0.5 0  0.5 0.5 0  0 0.25 0  0.25 0 0  0.25 1 0  0 0.75 0  1 0.25 0  0.75 0 0  1 0.75 0  0.75 1 0  0.7083333333333333 0.2916666666666667 0  0.2916666666666666 0.7083333333333334 0  0.375 0.25 0  0.75 0.625 0  0.2569444444444444 0.4652777777777778 0  0.5366379310344828 0.7535919540229885 0  0.1875 0.1875 0  0.8125 0.8125 0  0.869047619047619 0.375 0  0.1450441919191919 0.6052714646464646 0  0.375 0.8690476190476191 0  0.5526960784313725 0.1825980392156862 0  0.8385416666666666 0.1614583333333334 0  0.1614583333333333 0.8385416666666667 0  0.6736111111111112 0.4652777777777778 0  0.1367521367521368 0.3477564102564102 0  0.6570970491253563 0.8648656830417855 0  0.5102479397556124 0.3386260301221938 0  0.3654513888888889 0.5737847222222222 0  0.6929750044954185 0.1362784921584263 0  0.388576102743835 0.411911725237599 0  0.6091269841269842 0.5942460317460317 0  0.875 0.6875 0  0.427278890279516 0.119889445139758 0  0.8544456845238095 0.5213913690476191 0  0.125 0 0  0 0.125 0  1 0.875 0  0.875 1 0  0.1280008648150532 0.4769292340226777 0  0.2695382451711197 0.3321750950221553 0  0.7031567235715964 0.7447810921428012 0  0.625 0 0  0.375 0 0  0.125 1 0  0.875 0 0  0 0.375 0  0 0.625 0  1 0.375 0  0.375 1 0  1 0.125 0  0 0.875 0  0.625 1 0  1 0.625 0  0.2979288363930608 0.1201429454643536 0  0.410919540229885 0.7484605911330049 0  0.5325041980395562 0.878905151526474 0  0.4831670727569156 0.6331060043826487 0  0.1735997378973042 0.7204747378973043 0  0.2534919507575758 0.5772372159090909 0  0.2633928571428572 0.8876488095238095 0  0.8199404761904761 0.2730654761904762 0  0.75830270586982 0.3919383189517417 0  0.5750282248382511 0.4237522353023667 0  0.6008360210023379 0.2794828358598495 0  0.08163442644334186 0.6821295860397322 0  0.08333333333333333 0.1875 0  0.2028380815996574 0.08844602719988583 0  0.2766521142611967 0.2325436572164097 0  0.90625 0.78125 0  0.890625 0.890625 0  0.7545696325008384 0.8973565441669461 0  0.5625 0.08086590340834317 0  0.09077380952380953 0.09077380952380952 0  0.4610923478694773 0.209034015149656 0  0.7542527598351648 0.5248380520595106 0  0.6459235536037465 0.3619913988405765 0  0.7560381768882634 0.20506142233852 0  0.07073252688172042 0.8125 0  0.0924753097241701 0.9078102849914793 0  0.9292674731182795 0.1875 0  0.9075246902758297 0.09218971500852073 0  0.8125 0.07073252688172045 0  0.2400955776842301 0.7869705776842302 0  0.9121050213379069 0.2781978201831695 0  0.7916878157143976 0.7239689078571988 0  0.9345238095238094 0.4375 0  0.4375 0.9345238095238095 0  0.3725616989755203 0.6651895248862173 0  0.06536271996350887 0.5625 0  0.9348362560379583 0.5625 0  0.456646798987055 0.8277247094351965 0  0.1875 0.9355758238725954 0  0.6169761231634859 0.6939779188977889 0  0.6226854751147515 0.7827911461419014 0  0.3305695598137626 0.7901697871282585 0  0.5865305325818898 0.5101085479043448 0  0.6622701297028378 0.2177663989757395 0  0.1354166666666667 0.2591702279202279 0  0 0.3125 0  0.2094429575680048 0.3936361846162499 0  0.836666296419157 0.607917407161686 0  0.6875 1 0  0.214261555450504 0.6492551722020035 0  0 0.4375 0  0.07731537126068377 0.40625 0  0.3427725432967068 0.4879566233699599 0  0.3550792513951871 0.3331953632609953 0  0.4462473953896857 0.2887834789342508 0  0.4747801464819794 0.417386052030127 0  0.8229836475148948 0.4443292349237342 0  0.7322605135514757 0.8199240278289671 0  0.6756431877205955 0.5468989748126787 0  0.1968419507215863 0.5194573482612496 0  0.3285590277777778 0.9345238095238095 0  0.8125 1 0  0.4198917601920009 0.5134893045331258 0  0.5232405503206691 0.2595791787880157 0  1 0.9375 0  0.1987510870015086 0.3025185951894431 0  0.5625 1 0  0.6005390654136388 0.9228110509230952 0  0.6411254848194414 0.07704872765442942 0  0.3357233162523242 0.1855113224530532 0  0.6730653396610877 0.6393887462324165 0  0.310966987234063 0.6240019765311626 0  0.7368737836204349 0.07457755202327881 0  0.6192316414418171 0.1485238406378594 0  0.5432429670607106 0.678552703844006 0  0.4754371679695679 0.7103946803120881 0  0.07501324890749672 0.3043839897335739 0  0.5358146975860403 0.5688321463205916 0  0.3115271739500156 0.3982137365971444 0  0.3625191397122174 0.0767854603650549 0  0.5024029442563831 0.1264128223758444 0  0.4375 0 0  0.4699946908887376 0.06379961173775725 0  0.9375 0.71875 0  0.9272105898044465 0.635671179608893 0  0.9375 1 0  0.6690971819568612 0.9331530898202766 0  0.1073454944778885 0.7499206387638554 0  0.8699082999280406 0.2232403652524313 0  0.5773118091863964 0.3548027349159383 0  0.1354166666666667 0.1428571428571428 0  0.3125 0 0  0.8241684193077341 0.9257452995055244 0  0.4352314948354036 0.3586940847489378 0  0.4351301473778832 0.5819726043539077 0  0.8073232928518163 0.3419398170341962 0  0.7775949246947366 0.1298519409204575 0  0.6875 0 0  0.7413513991851041 0.457933324954483 0  0.939453125 0.841796875 0  0.5630355154606987 0.8171875156478349 0  0.9345238095238095 0.3461466592368577 0  0.9375 0 0  1 0.0625 0  0.0625 1 0  0 0.9375 0  0.06552178593177167 0.4969053669623468 0  0.1424866619031703 0.4130277709291224 0  0.1275287182444726 0.5422946908002588 0  0.2637686595586339 0.06413888464529549 0  0.2524263535491086 0.1697437503243817 0  0.7367218397988525 0.6888573970660841 0  0.0625 0 0  0 0.0625 0  0.8463594539285995 0.7578283617857982 0  0.3128751192101563 0.2851997374369947 0  0.4015281788351144 0.1806421385113692 0  0.1910251795116588 0.4553332197174453 0  0.287797471442006 0.5222621440543902 0  0.3962628745986055 0.8097380085535307 0  0.3505895299554843 0.7304878890838692 0  0.5019151500495276 0.9356042615328103 0  0.9374389419410134 0.4999931039076005 0  0.3125 1 0  0.1875 1 0  1 0.5625 0  0.4375 1 0  1 0.3125 0  1 0.4375 0  0.8125 0 0  1 0.1875 0  0.5625 0 0  0.1875 0 0  0 0.1875 0  0 0.5625 0  0 0.6875 0  0 0.8125 0  1 0.6875 0  1 0.8125 0  0.8021696218581627 0.6612893947866073 0  0.06154922295426143 0.6239401126946708 0  0.9359375 0.9359375 0  0.4666158024849896 0.7691515918155014 0  0.2318201265217025 0.7064974250277525 0  0.1565954253579966 0.6635489312486841 0  0.1598132503680848 0.7787147500325552 0  0.3146529991605639 0.8510876378205265 0  0.1461873209418733 0.05982804528877814 0  0.06109554988524315 0.2446551776247686 0  0.8054950308560754 0.5564226538848541 0  0.470541749491976 0.8853316336952531 0  0.6948472567465137 0.4042308563372457 0  0.8802828472348889 0.4658893256343853 0  0.6788075634946739 0.7974194205806069 0  0.2155048659603867 0.2428201584940968 0  0.8131223143423806 0.2132171049028394 0  0.4330798005432235 0.6671274900735726 0  0.6015279126162613 0.2187368078743274 0  0.8061636571464289 0.8703766630361714 0  0.7008230445061776 0.3478568388444072 0  0.8638466246958771 0.3147095987735538 0  0.204801534004265 0.8789209409594009 0  0.2449006736431132 0.9424182882803838 0  0.7611268409371427 0.2643056884799992 0  0.7552800864046191 0.7678006649959446 0  0.5983639638906616 0.864113435029236 0  0.1956559506814437 0.577281203577426 0  0.3527670268164207 0.1320469097565204 0  0.7530364577483248 0.3262386077083089 0  0.4535919187979363 0.4690107087451527 0  0.8824869791666666 0.8336588541666666 0  0.8814453125 0.9451171875 0  0.5582987942628019 0.622421666543858 0  0.6817532446064828 0.6939001801354731 0  0.3830295138888889 0.9450968952922078 0  0.4140603937012541 0.05211333372716105 0  0.5535864501303013 0.3060591985391672 0  0.6560130086346878 0.2729726562211558 0  0.890203140221684 0.5948314305427268 0  0.7043857725999024 0.593980890020804 0  0.5105843922695152 0.8016828014338627 0  0.05365910753708378 0.7315110031682004 0  0.616904573672261 0.4621186633436136 0  0.5338511646455415 0.387875898899613 0  0.5231769258947843 0.4477682463140762 0  0.650302973237622 0.7370722302085519 0  0.3927483139621257 0.4662414504529014 0  0.8034595960585199 0.4972538342758211 0  0.7738337841682438 0.9496376207663251 0  0.7193737507158268 0.954685447650112 0  0.482525916480686 0.5528257169991676 0  0.2533501157346781 0.2809495420003238 0  0.3118487924482243 0.5702930126570319 0  0.6257598847669529 0.4104163315430518 0  0.1354166666666667 0.1955605158730158 0  0.04166666666666666 0.15625 0  0.3956448985530264 0.6174149462065157 0  0.8102897701818546 0.3938784238208349 0  0.2641154190013625 0.8344469561943118 0  0.642852220770013 0.5068794586563659 0  0.05271458179508221 0.355846947336007 0  0.7021551360070266 0.8921457280225779 0  0.5692125776683765 0.1328512638850284 0  0.5206162811937602 0.04865158770992991 0  0.6001838442201555 0.04540556991297563 0  0.2597716608242787 0.4118346398477178 0  0.4040584599473195 0.3179589136784675 0  0.1480337679295207 0.8941560631483065 0  0.1344356707112281 0.9466251177415842 0  0.7114696411829317 0.4983917389078826 0  0.7585704698442475 0.5751926345944629 0  0.2189131956390871 0.04022068508159698 0  0.2476935455192043 0.1123642267635843 0  0.185995005654517 0.1365524537205238 0  0.6223414373308711 0.643380839165121 0  0.5732602596637543 0.7190051747306219 0  0.268358222364537 0.6586246524467934 0  0.3265879848129173 0.2369791782191225 0  0.1267095595787346 0.7034787238999181 0  0.1115202922226038 0.6421997933884982 0  0.3128688392940203 0.07260997451790079 0  0.550724900485678 0.9253360991633187 0  0.7142608810459105 0.2384904702214873 0  0.7045869185243887 0.1871826897887429 0  0.890625 0.734375 0  0.953125 0.765625 0  0.2111812642821677 0.8286209446459138 0  0.9590293078204457 0.09375 0  0.953431269039847 0.1435719386408004 0  0.04097069217955424 0.90625 0  0.04656873096015299 0.8564280613591996 0  0.1078743037981226 0.8541621766048062 0  0.8921256962018773 0.1458378233951939 0  0.8521576979194619 0.1084496634207678 0  0.8655663982740958 0.05464346096571447 0  0.04005659640905543 0.09375 0  0.1001448316533417 0.04246776244228261 
[...]
<PointData  Vectors="f_8394-3"> 
<DataArray  type="Float64"  Name="f_8394-3"  NumberOfComponents="3" format="ascii">-1.0101924271989140e+00 -1.0094409318433943e+00 0.0000000000000000e+00  -5.3994062351880179e-01 -5.4099047915620635e-01 0.0000000000000000e+00  4.1803392425118774e-01 4.1803392425096808e-01 0.0000000000000000e+00  -5.4094482533938493e-01 -5.3991617326998886e-01 0.0000000000000000e+00  -8.7746933708403985e-01 -8.8370907132091681e-01 0.0000000000000000e+00  -6.3491048407522926e-02 -7.0767230017452804e-02 0.0000000000000000e+00  -7.0470099155585483e-02 -6.4802617908852236e-02 0.0000000000000000e+00  -8.8232682296578158e-01 -8.7777253988182835e-01 0.0000000000000000e+00  -5.4039318822055538e-01 -5.4062904550459046e-01 0.0000000000000000e+00  -9.7424530864651238e-01 -9.6908581050505527e-01 0.0000000000000000e+00  -9.6930160552816103e-01 -9.7611135699643570e-01 0.0000000000000000e+00  -3.1535404036920595e-01 -3.0837717178711349e-01 0.0000000000000000e+00  -7.3863168290852899e-01 -7.3096660232504196e-01 0.0000000000000000e+00  -3.0940039240938305e-01 -3.1538362667760939e-01 0.0000000000000000e+00  -7.3178789080064677e-01 -7.3705224166976624e-01 0.0000000000000000e+00  1.8602336762291388e-01 1.7835984759646301e-01 0.0000000000000000e+00  1.7848134226651716e-01 1.8547415296744046e-01 0.0000000000000000e+00  -5.4050431038468993e-01 -5.4115376612118049e-01 0.0000000000000000e+00  -5.4003246010081551e-01 -5.4044695531894094e-01 0.0000000000000000e+00  -8.1100093178132004e-01 -8.1101448790779285e-01 0.0000000000000000e+00  -1.9474329777568594e-01 -1.9494067191815340e-01 0.0000000000000000e+00  -7.5180506333606334e-01 -7.5044856164189522e-01 0.0000000000000000e+00  -2.7687037160367284e-01 -2.7657135319930082e-01 0.0000000000000000e+00  -9.3062325270600010e-01 -9.3152436164970853e-01 0.0000000000000000e+00  5.3402886470371932e-02 5.4405749650356952e-02 0.0000000000000000e+00  -3.2087346851044257e-01 -3.2122526984072675e-01 0.0000000000000000e+00  -7.3150789151065942e-01 -7.3178542862920537e-01 0.0000000000000000e+00  -3.2139459011466542e-01 -3.2077261053403305e-01 0.0000000000000000e+00  -7.4185592866036343e-01 -7.4249235105751898e-01 0.0000000000000000e+00  -5.4078646553084952e-01 -5.4058440782565031e-01 0.0000000000000000e+00  -5.4159389411855630e-01 -5.4019983379232372e-01 0.0000000000000000e+00  -4.1828335439464154e-01 -4.1896272531393625e-01 0.0000000000000000e+00  -8.8555701612314208e-01 -8.8454005025791438e-01 0.0000000000000000e+00  -4.8790198645669657e-02 -4.9081948702416341e-02 0.0000000000000000e+00  -6.6104764185309173e-01 -6.6120042169222992e-01 0.0000000000000000e+00  -5.9004951407866024e-01 -5.9077954711361202e-01 0.0000000000000000e+00  -6.7595724575186111e-01 -6.7580692116330121e-01 0.0000000000000000e+00  -6.9645309002888212e-01 -6.9667402383195165e-01 0.0000000000000000e+00  -3.5948923323776832e-01 -3.5929895170307335e-01 0.0000000000000000e+00  -8.2200670682281290e-03 -8.3445176091028264e-03 0.0000000000000000e+00  -8.5442358216423286e-01 -8.5439429517454435e-01 0.0000000000000000e+00  -1.9354334590866423e-01 -1.9392554084545563e-01 0.0000000000000000e+00  -9.9264582801189583e-01 -1.0029996916211084e+00 0.0000000000000000e+00  -1.0040591504115426e+00 -9.9182788188897497e-01 0.0000000000000000e+00  3.0904256824466714e-01 2.9967080116161804e-01 0.0000000000000000e+00  2.9962950733466548e-01 3.0675848628158436e-01 0.0000000000000000e+00  -8.2228530789084830e-01 -8.2276332748261793e-01 0.0000000000000000e+00  -8.2521677676547389e-01 -8.2474347453059382e-01 0.0000000000000000e+00  -1.2332841005201475e-01 -1.2238587773578906e-01 0.0000000000000000e+00  -8.1118509808378825e-01 -8.1663584781756404e-01 0.0000000000000000e+00  -9.3071961121559321e-01 -9.3764012512339745e-01 0.0000000000000000e+00  -4.3144814932433528e-01 -4.2568564181230167e-01 0.0000000000000000e+00  -6.4110510858021774e-01 -6.4962337903341860e-01 0.0000000000000000e+00  -9.3995056463347204e-01 -9.3137734291232332e-01 0.0000000000000000e+00  -8.1572828909695871e-01 -8.1031081545943928e-01 0.0000000000000000e+00  -1.8790045487666665e-01 -1.9469118520862383e-01 0.0000000000000000e+00  -1.9446268535167999e-01 -1.8737121874051121e-01 0.0000000000000000e+00  -4.2609765151848067e-01 -4.3130837240998915e-01 0.0000000000000000e+00  -6.4703810396961159e-01 -6.4132849542773318e-01 0.0000000000000000e+00  5.3825428102863906e-02 6.0857742152162060e-02 0.0000000000000000e+00  6.0368393409458487e-02 5.4189991510482739e-02 0.0000000000000000e+00  -9.1469047899809341e-01 -9.1474163741043479e-01 0.0000000000000000e+00  -3.9950931926251743e-01 -4.0015797939233405e-01 0.0000000000000000e+00  -1.5831870303020965e-01 -1.5911667952028699e-01 0.0000000000000000e+00  -4.3918978996876767e-01 -4.3903069052689181e-01 0.0000000000000000e+00  -6.2651831825183424e-01 -6.2682405022278509e-01 0.0000000000000000e+00  -6.7453388398269964e-01 -6.7502630415002929e-01 0.0000000000000000e+00  -4.0796631192369726e-01 -4.0770492395993030e-01 0.0000000000000000e+00  -4.5991868479661419e-01 -4.6020008017934760e-01 0.0000000000000000e+00  -4.0817312348691559e-01 -4.0863077403703008e-01 0.0000000000000000e+00  -5.4108896893533354e-01 -5.4191581113127651e-01 0.0000000000000000e+00  -6.3686759962222195e-01 -6.3667547301828675e-01 0.0000000000000000e+00  -7.2247489027019518e-01 -7.2222091080508277e-01 0.0000000000000000e+00  -9.6302629659630767e-01 -9.6301575856133570e-01 0.0000000000000000e+00  -9.5783675653329092e-01 -9.5838583863766780e-01 0.0000000000000000e+00  -8.7383197021956938e-01 -8.7259876454114949e-01 0.0000000000000000e+00  1.1629487586640291e-01 1.1582144566723360e-01 0.0000000000000000e+00  2.0870913106619687e-01 2.0888512160783987e-01 0.0000000000000000e+00  8.0539759478886100e-02 8.0843628439529414e-02 0.0000000000000000e+00  -8.0054321462502598e-01 -8.0050729238383456e-01 0.0000000000000000e+00  -9.8360539145850445e-01 -9.8319470455187341e-01 0.0000000000000000e+00  -7.8363335613135710e-01 -7.8402817968029714e-01 0.0000000000000000e+00  -2.8799952516096539e-01 -2.8767091483864282e-01 0.0000000000000000e+00  -5.3370073040439125e-01 -5.3382902146642430e-01 0.0000000000000000e+00  -5.7329569136624803e-01 -5.7279017495144602e-01 0.0000000000000000e+00  -6.3504018685808827e-01 -6.3365615906215700e-01 0.0000000000000000e+00  -5.4007005592408075e-01 -5.3989639445631532e-01 0.0000000000000000e+00  -4.3883051249782723e-01 -4.3847185560001167e-01 0.0000000000000000e+00  -5.4037795912892572e-01 -5.4091619598819118e-01 0.0000000000000000e+00  -6.3563365792581861e-01 -6.3398593551098847e-01 0.0000000000000000e+00  -5.1699160217815388e-01 -5.1795780159620963e-01 0.0000000000000000e+00  -3.7152396407400534e-01 -3.7231232409471643e-01 0.0000000000000000e+00  -5.5145594515421024e-02 -5.5118899102043123e-02 0.0000000000000000e+00  -1.9762747508841438e-01 -1.9748402111174815e-01 0.0000000000000000e+00  -1.9789222946791671e-01 -1.9730336437779858e-01 0.0000000000000000e+00  -5.0767391298606412e-01 -5.0735193204339912e-01 0.0000000000000000e+00  -8.0937287809397385e-01 -8.1037957231009794e-01 0.0000000000000000e+00  -7.3768318224607415e-02 -7.2882974660041261e-02 0.0000000000000000e+00  -2.8304171354400093e-01 -2.8236621562502051e-01 0.0000000000000000e+00  -4.3361811907883485e-01 -4.3326874345640215e-01 0.0000000000000000e+00  -2.5701222192666651e-01 -2.5686887731366703e-01 0.0000000000000000e+00  -1.6485864251755619e-01 -1.6382460238184116e-01 0.0000000000000000e+00  -4.3568330324161475e-01 -4.3502964297298352e-01 0.0000000000000000e+00  -4.5654030243976795e-01 -4.5667907233409627e-01 0.0000000000000000e+00  -6.3681301127847878e-01 -6.3774974141178808e-01 0.0000000000000000e+00  -9.2327521037254789e-01 -9.2291790238864735e-01 0.0000000000000000e+00  -9.5878177697549816e-01 -9.5179598633147078e-01 0.0000000000000000e+00  -8.2403809976330766e-01 -8.2346829620463169e-01 0.0000000000000000e+00  -1.2576614483130266e-01 -1.2600514565651522e-01 0.0000000000000000e+00  1.1650110248034543e-01 1.2315752544186334e-01 0.0000000000000000e+00  -6.4981358246343324e-01 -6.4999899911349102e-01 0.0000000000000000e+00  -9.0949254392373058e-01 -9.0674891293370363e-01 0.0000000000000000e+00  -8.8529417449381287e-01 -8.8558070226845809e-01 0.0000000000000000e+00  -6.7472896437516761e-01 -6.7471651940817545e-01 0.0000000000000000e+00  -7.7270972115562886e-01 -7.7340098958483461e-01 0.0000000000000000e+00  -7.4211874732727368e-01 -7.4160373529145995e-01 0.0000000000000000e+00  -6.2816345912086546e-01 -6.2842332667219281e-01 0.0000000000000000e+00  -2.9948812485241988e-01 -2.9896301080938814e-01 0.0000000000000000e+00  -1.8688313263682865e-02 -1.8194135119172786e-02 0.0000000000000000e+00  -3.4129782623678584e-01 -3.4129507802204029e-01 0.0000000000000000e+00  -7.5516026867305852e-01 -7.5512775349938865e-01 0.0000000000000000e+00  -3.0268983256528759e-01 -3.0362997393728641e-01 0.0000000000000000e+00  2.3963879699635293e-01 2.4821783786229792e-01 0.0000000000000000e+00  -5.9589159267249581e-01 -5.9495812927578795e-01 0.0000000000000000e+00  -7.0893512093133126e-01 -7.0840969168785095e-01 0.0000000000000000e+00  3.6949629031275627e-01 3.5850172460619922e-01 0.0000000000000000e+00  -8.7814281210689227e-01 -8.7732594550981735e-01 0.0000000000000000e+00  -8.2762263687874878e-03 -2.0999959645253141e-03 0.0000000000000000e+00  -4.8133032680040565e-02 -4.7644781045122264e-02 0.0000000000000000e+00  -7.5259768370548785e-01 -7.5311451516740213e-01 0.0000000000000000e+00  -8.6818301717135582e-01 -8.6727906556947310e-01 0.0000000000000000e+00  -2.5593125457353166e-01 -2.5585689897199132e-01 0.0000000000000000e+00  -5.9374126602665445e-01 -5.9429377080552692e-01 0.0000000000000000e+00  -6.8908851205879662e-01 -6.8909706047249042e-01 0.0000000000000000e+00  -7.1885378160142410e-01 -7.1989964727270528e-01 0.0000000000000000e+00  -3.4226302538875247e-01 -3.4224435035681511e-01 0.0000000000000000e+00  -3.7625078687621122e-01 -3.7564476338256658e-01 0.0000000000000000e+00  -9.2989932088155780e-01 -9.2972213031959461e-01 0.0000000000000000e+00  -4.4961302484558685e-01 -4.4961555930034003e-01 0.0000000000000000e+00  -7.5990325987779217e-01 -7.5888668192352826e-01 0.0000000000000000e+00  -9.0530524086445130e-01 -9.0536057371307943e-01 0.0000000000000000e+00  -8.0979297824190943e-01 -8.0974374208468425e-01 0.0000000000000000e+00  -9.0673557492744283e-01 -9.1317933546948948e-01 0.0000000000000000e+00  -8.6237566300724633e-01 -8.6134125447394150e-01 0.0000000000000000e+00  8.5084578477585326e-02 8.5473445644279708e-02 0.0000000000000000e+00  -7.7303591429160462e-03 -8.1197451884260780e-03 0.0000000000000000e+00  3.5873036132098302e-01 3.7073677051233594e-01 0.0000000000000000e+00  3.1666448937290662e-02 3.1370650908283407e-02 0.0000000000000000e+00  -6.5365324090987387e-01 -6.5514905722283334e-01 0.0000000000000000e+00  -4.6011290797647453e-01 -4.5983272146542697e-01 0.0000000000000000e+00  -5.9594060332760801e-01 -5.9671239085647587e-01 0.0000000000000000e+00  -9.6178433314138745e-01 -9.6237991300822778e-01 0.0000000000000000e+00  -9.5130488843653216e-01 -9.5714357077891254e-01 0.0000000000000000e+00  1.7825259420383271e-01 1.7860345384261139e-01 0.0000000000000000e+00  -7.0083803973286685e-01 -7.0066186925297869e-01 0.0000000000000000e+00  -5.2601004088941639e-01 -5.2599253775461630e-01 0.0000000000000000e+00  -4.0945393578178196e-01 -4.0962154472922119e-01 0.0000000000000000e+00  -6.1622016460675721e-01 -6.1628998781169431e-01 0.0000000000000000e+00  -7.7292765288020948e-01 -7.7895851165230956e-01 0.0000000000000000e+00  -3.6301061393960166e-01 -3.6341262982695866e-01 0.0000000000000000e+00  2.0832264018361216e-01 2.0973028604523100e-01 0.0000000000000000e+00  -1.8960430463688921e-01 -1.8967671781039566e-01 0.0000000000000000e+00  -2.8614495179010785e-01 -2.8571423692713882e-01 0.0000000000000000e+00  -5.9202479072886915e-01 -5.9792238719066604e-01 0.0000000000000000e+00  -4.8265594511124377e-01 -4.8689496703128338e-01 0.0000000000000000e+00  -4.8682004399425194e-01 -4.8160077578539340e-01 0.0000000000000000e+00  -5.9820332816909594e-01 -5.9149088561300101e-01 0.0000000000000000e+00  -8.4639793965638277e-01 -8.4577877524654121e-01 0.0000000000000000e+00  -8.5068094382944515e-01 -8.5004462560644778e-01 0.0000000000000000e+00  -7.8485283897970204e-01 -7.8470106364444703e-01 0.0000000000000000e+00  -9.4733293276280883e-01 -9.4676019650159426e-01 0.0000000000000000e+00  -9.1316670403557709e-01 -9.1335604958809369e-01 0.0000000000000000e+00  -1.4469395479264890e-01 -1.4565524202189770e-01 0.0000000000000000e+00  -9.9835619399396835e-01 -1.0128123809372200e+00 0.0000000000000000e+00  -1.0080037841781417e+00 -9.9929364500158302e-01 0.0000000000000000e+00  3.3643169235512103e-02 3.2813091127250379e-02 0.0000000000000000e+00  -8.2726539213937178e-01 -8.2743075545171763e-01 0.0000000000000000e+00  -8.3613139015808657e-01 -8.3594916604486891e-01 0.0000000000000000e+00  -7.9979020710140269e-01 -7.9820225925351629e-01 0.0000000000000000e+00  -6.9031177678232569e-01 -6.8970558472541099e-01 0.0000000000000000e+00  -3.5705652311000169e-01 -3.5772403443532808e-01 0.0000000000000000e+00  -4.7108928293809155e-01 -4.7020119293307389e-01 0.0000000000000000e+00  -1.3303213367613440e-01 -1.3249587966529372e-01 0.0000000000000000e+00  -1.3301225950931811e-01 -1.3277384391082059e-01 0.0000000000000000e+00  -2.5543599556410262e-01 -2.4830484122210089e-01 0.0000000000000000e+00  -3.7397892678322253e-01 -3.6854895165967855e-01 0.0000000000000000e+00  -2.1932110102624788e-03 -8.6155162376557529e-03 0.0000000000000000e+00  -1.3274762641707483e-01 -1.2616775095767407e-01 0.0000000000000000e+00  -2.4893276024716604e-01 -2.5543807091676185e-01 0.0000000000000000e+00  -1.2660363912281122e-01 -1.3293798955460429e-01 0.0000000000000000e+00  -6.8783940850372294e-01 -6.9344096806807676e-01 0.0000000000000000e+00  -3.6860714671828970e-01 -3.7407294903790922e-01 0.0000000000000000e+00  -8.4630029416173169e-01 -8.5373581910832297e-01 0.0000000000000000e+00  -9.8268424290613954e-01 -9.8857988223158211e-01 0.0000000000000000e+00  -9.9101959908137127e-01 -9.8306791655888670e-01 0.0000000000000000e+00  -8.5795558992270349e-01 -8.4602265842289326e-01 0.0000000000000000e+00  -7.7805724723383385e-01 -7.7314833726823651e-01 0.0000000000000000e+00  -6.9624661489986106e-01 -6.8826342985478750e-01 0.0000000000000000e+00  1.2278088758302899e-01 1.1646805257612163e-01 0.0000000000000000e+00  2.4843159397663400e-01 2.3932332325738842e-01 0.0000000000000000e+00  -1.0669698137073896e-01 -1.0731292855438665e-01 0.0000000000000000e+00  -7.7437367042311356e-01 -7.7318937319296954e-01 0.0000000000000000e+00  2.9706955692857129e-01 2.9566244119216284e-01 0.0000000000000000e+00  -3.2938550280531909e-01 -3.2946949291332617e-01 0.0000000000000000e+00  -5.9161914967315887e-01 -5.9090433913665108e-01 0.0000000000000000e+00  -6.8355599004581324e-01 -6.8251506485772007e-01 0.0000000000000000e+00  -5.9216059522126208e-01 -5.9184734849925547e-01 0.0000000000000000e+00  -3.9460160308797609e-01 -3.9343037940436121e-01 0.0000000000000000e+00  -9.7867526452333675e-01 -9.7921096467077218e-01 0.0000000000000000e+00  -9.5506126304091299e-01 -9.5411419673452835e-01 0.0000000000000000e+00  -2.0734179317185769e-01 -2.0705652137073238e-01 0.0000000000000000e+00  -2.1320067915354496e-01 -2.1307343728271172e-01 0.0000000000000000e+00  -4.5451213155715875e-01 -4.5504456336922305e-01 0.0000000000000000e+00  -2.2303465015968901e-01 -2.2301434276039495e-01 0.0000000000000000e+00  -9.4892699763875238e-02 -9.4745172698789876e-02 0.0000000000000000e+00  -8.9683117654937394e-01 -8.9816397046268037e-01 0.0000000000000000e+00  -5.1815995427682382e-01 -5.1752266815076475e-01 0.0000000000000000e+00  -4.5370563848512735e-01 -4.5410359391580407e-01 0.0000000000000000e+00  -6.8175096330910567e-01 -6.8367995108995960e-01 0.0000000000000000e+00  1.0544072683549655e-01 1.0500267731704481e-01 0.0000000000000000e+00  -4.9889888255978437e-01 -4.9913141540410533e-01 0.0000000000000000e+00  -3.8200754917004087e-01 -3.8221934150256248e-01 0.0000000000000000e+00  -4.6787926559972848e-01 -4.6835412651956954e-01 0.0000000000000000e+00  -3.7356783980741454e-01 -3.7436947626704059e-01 0.0000000000000000e+00  -5.1929083429523404e-01 -5.1910405618804689e-01 0.0000000000000000e+00  -4.7703444831651794e-02 -4.7307535070952145e-02 0.0000000000000000e+00  -1.0889126884067074e-01 -1.0759500547824363e-01 0.0000000000000000e+00  -7.1634982444549777e-01 -7.1538978601617564e-01 0.0000000000000000e+00  -8.8455309649349978e-01 -8.8545613991196759e-01 0.0000000000000000e+00  -4.7205181220125519e-01 -4.7134343690763714e-01 0.0000000000000000e+00  -6.0337045052539540e-01 -6.0418565822714576e-01 0.0000000000000000e+00  1.4487288924631253e-01 1.4529228522537058e-01 0.0000000000000000e+00  2.5203319433207749e-01 2.5343712999596668e-01 0.0000000000000000e+00  -3.8071624293547668e-01 -3.8071459151621501e-01 0.0000000000000000e+00  -1.9391691259353613e-01 -1.9377718998824425e-01 0.0000000000000000e+00  -2.4009492605647753e-01 -2.4097844841490790e-01 0.0000000000000000e+00  -8.9348603019870976e-01 -8.9442703353803976e-01 0.0000000000000000e+00  -6.5320979795311818e-01 -6.5269181022625067e-01 0.0000000000000000e+00  -5.9921389846155582e-01 -5.9911564382796545e-01 0.0000000000000000e+00  -8.5719300522944283e-02 -8.5652864130269374e-02 0.0000000000000000e+00  -2.6927304336843261e-01 -2.6989339793797101e-01 0.0000000000000000e+00  -2.5594927892931257e-01 -2.5572632559774133e-01 0.0000000000000000e+00  -7.0749858887238959e-01 -7.0689830302773182e-01 0.0000000000000000e+00  -4.7251310214712033e-01 -4.7242941396647153e-01 0.0000000000000000e+00  -6.0485185487586113e-01 -6.0528806881579555e-01 0.0000000000000000e+00  -5.6520134254615340e-01 -5.6523664276366148e-01 0.0000000000000000e+00  -1.8244770030378224e-01 -1.8279957127753282e-01 0.0000000000000000e+00  -6.5326347095102233e-01 -6.5350609814212113e-01 0.0000000000000000e+00  -2.6634309964590624e-01 -2.6723530791388789e-01 0.0000000000000000e+00  1.5182204245113765e-01 1.5220056627806414e-01 0.0000000000000000e+00  1.0298153456913300e-01 1.0357572049586883e-01 0.0000000000000000e+00  -5.1080877075276243e-01 -5.1060318599782040e-01 0.0000000000000000e+00  -8.6129828618760873e-01 -8.6133880605740631e-01 0.0000000000000000e+00  -6.3510919820488765e-01 -6.3586105834732742e-01 0.0000000000000000e+00  -5.0966577918938527e-01 -5.1028073195484347e-01 0.0000000000000000e+00  -9.4515879412114046e-01 -9.4454942158724120e-01 0.0000000000000000e+00  -9.8195573067309372e-01 -9.8056748891503986e-01 0.0000000000000000e+00  -5.2966455371289600e-01 -5.3010284761911919e-01 0.0000000000000000e+00  -3.5882008215448347e-01 -3.5846307964140323e-01 0.0000000000000000e+00  -4.5490617527241134e-01 -4.5516531358260087e-01 0.0000000000000000e+00  -4.0897860885076071e-01 -4.0862550949573750e-01 0.0000000000000000e+00  -9.1778697352364846e-01 -9.1932266916044381e-01 0.0000000000000000e+00  2.3490290993908619e-02 2.3121543558035119e-02 0.0000000000000000e+00  -7.6343225195178621e-01 -7.6226890190644547e-01 0.0000000000000000e+00  -8.4161783410139335e-01 -8.4377916697984068e-01 0.0000000000000000e+00  -7.9878367151822638e-01 -7.9898186867131971e-01 0.0000000000000000e+00  -7.8187024845072473e-01 -7.8133322221520252e-01 0.0000000000000000e+00  -7.5054726956455653e-01 -7.5097464920745538e-01 0.0000000000000000e+00  -5.0491265719504463e-01 -5.0449263925209642e-01 0.0000000000000000e+00  -4.7078078784602007e-01 -4.7052404600603559e-01 0.0000000000000000e+00  -3.5302285923987675e-01 -3.5340360991461212e-01 0.0000000000000000e+00  -2.3510657113951225e-01 -2.3473314562862846e-01 0.0000000000000000e+00  -9.6711839500301422e-01 -9.6839353938387940e-01 0.0000000000000000e+00  -9.3623092944801334e-01 -9.3616547125678584e-01 0.0000000000000000e+00  -9.5022627912077917e-01 -9.4817042162752663e-01 0.0000000000000000e+00  -3.0017489967684363e-01 -3.0107578235451338e-01 0.0000000000000000e+00  -2.7488416669957894e-01 -2.7454100254427993e-01 0.0000000000000000e+00