<?xml version="1.0"?>
<VTKFile type="UnstructuredGrid"  version="0.1"  >
<UnstructuredGrid>
<Piece  NumberOfPoints="1385" NumberOfCells="2640">
<Points>
<DataArray  type="Float64"  NumberOfComponents="3"  format="ascii">0 0 0  1 0 0  1 1 0  0 1 0  0.5 0 0  1 0.5 0  0.5 1 0  0 0.5 0  0.5 0.5 0  0 0.25 0  0.25 0 0  0.25 1 0  0 0.75 0  1 0.25 0  0.75 0 0  1 0.75 0  0.75 1 0  0.7083333333333333 0.2916666666666667 0  0.2916666666666666 0.7083333333333334 0  0.375 0.25 0  0.75 0.625 0  0.2569444444444444 0.4652777777777778 0  0.5366379310344828 0.7535919540229885 0  0.1875 0.1875 0  0.8125 0.8125 0  0.869047619047619 0.375 0  0.1450441919191919 0.6052714646464646 0  0.375 0.8690476190476191 0  0.5526960784313725 0.1825980392156862 0  0.8385416666666666 0.1614583333333334 0  0.1614583333333333 0.8385416666666667 0  0.6736111111111112 0.4652777777777778 0  0.1367521367521368 0.3477564102564102 0  0.6570970491253563 0.8648656830417855 0  0.5102479397556124 0.3386260301221938 0  0.3654513888888889 0.5737847222222222 0  0.6929750044954185 0.1362784921584263 0  0.388576102743835 0.411911725237599 0  0.6091269841269842 0.5942460317460317 0  0.875 0.6875 0  0.427278890279516 0.119889445139758 0  0.8544456845238095 0.5213913690476191 0  0.125 0 0  0 0.125 0  1 0.875 0  0.875 1 0  0.1280008648150532 0.4769292340226777 0  0.2695382451711197 0.3321750950221553 0  0.7031567235715964 0.7447810921428012 0  0.625 0 0  0.375 0 0  0.125 1 0  0.875 0 0  0 0.375 0  0 0.625 0  1 0.375 0  0.375 1 0  1 0.125 0  0 0.875 0  0.625 1 0  1 0.625 0  0.2979288363930608 0.1201429454643536 0  0.410919540229885 0.7484605911330049 0  0.5325041980395562 0.878905151526474 0  0.4831670727569156 0.6331060043826487 0  0.1735997378973042 0.7204747378973043 0  0.2534919507575758 0.5772372159090909 0  0.2633928571428572 0.8876488095238095 0  0.8199404761904761 0.2730654761904762 0  0.75830270586982 0.3919383189517417 0  0.5750282248382511 0.4237522353023667 0  0.6008360210023379 0.2794828358598495 0  0.08163442644334186 0.6821295860397322 0  0.08333333333333333 0.1875 0  0.2028380815996574 0.08844602719988583 0  0.2766521142611967 0.2325436572164097 0  0.90625 0.78125 0  0.890625 0.890625 0  0.7545696325008384 0.8973565441669461 0  0.5625 0.08086590340834317 0  0.09077380952380953 0.09077380952380952 0  0.4610923478694773 0.209034015149656 0  0.7542527598351648 0.5248380520595106 0  0.6459235536037465 0.3619913988405765 0  0.7560381768882634 0.20506142233852 0  0.07073252688172042 0.8125 0  0.0924753097241701 0.9078102849914793 0  0.9292674731182795 0.1875 0  0.9075246902758297 0.09218971500852073 0  0.8125 0.07073252688172045 0  0.2400955776842301 0.7869705776842302 0  0.9121050213379069 0.2781978201831695 0  0.7916878157143976 0.7239689078571988 0  0.9345238095238094 0.4375 0  0.4375 0.9345238095238095 0  0.3725616989755203 0.6651895248862173 0  0.06536271996350887 0.5625 0  0.9348362560379583 0.5625 0  0.456646798987055 0.8277247094351965 0  0.1875 0.9355758238725954 0  0.6169761231634859 0.6939779188977889 0  0.6226854751147515 0.7827911461419014 0  0.3305695598137626 0.7901697871282585 0  0.5865305325818898 0.5101085479043448 0  0.6622701297028378 0.2177663989757395 0  0.1354166666666667 0.2591702279202279 0  0 0.3125 0  0.2094429575680048 0.3936361846162499 0  0.836666296419157 0.607917407161686 0  0.6875 1 0  0.214261555450504 0.6492551722020035 0  0 0.4375 0  0.07731537126068377 0.40625 0  0.3427725432967068 0.4879566233699599 0  0.3550792513951871 0.3331953632609953 0  0.4462473953896857 0.2887834789342508 0  0.4747801464819794 0.417386052030127 0  0.8229836475148948 0.4443292349237342 0  0.7322605135514757 0.8199240278289671 0  0.6756431877205955 0.5468989748126787 0  0.1968419507215863 0.5194573482612496 0  0.3285590277777778 0.9345238095238095 0  0.8125 1 0  0.4198917601920009 0.5134893045331258 0  0.5232405503206691 0.2595791787880157 0  1 0.9375 0  0.1987510870015086 0.3025185951894431 0  0.5625 1 0  0.6005390654136388 0.9228110509230952 0  0.6411254848194414 0.07704872765442942 0  0.3357233162523242 0.1855113224530532 0  0.6730653396610877 0.6393887462324165 0  0.310966987234063 0.6240019765311626 0  0.7368737836204349 0.07457755202327881 0  0.6192316414418171 0.1485238406378594 0  0.5432429670607106 0.678552703844006 0  0.4754371679695679 0.7103946803120881 0  0.07501324890749672 0.3043839897335739 0  0.5358146975860403 0.5688321463205916 0  0.3115271739500156 0.3982137365971444 0  0.3625191397122174 0.0767854603650549 0  0.5024029442563831 0.1264128223758444 0  0.4375 0 0  0.4699946908887376 0.06379961173775725 0  0.9375 0.71875 0  0.9272105898044465 0.635671179608893 0  0.9375 1 0  0.6690971819568612 0.9331530898202766 0  0.1073454944778885 0.7499206387638554 0  0.8699082999280406 0.2232403652524313 0  0.5773118091863964 0.3548027349159383 0  0.1354166666666667 0.1428571428571428 0  0.3125 0 0  0.8241684193077341 0.9257452995055244 0  0.4352314948354036 0.3586940847489378 0  0.4351301473778832 0.5819726043539077 0  0.8073232928518163 0.3419398170341962 0  0.7775949246947366 0.1298519409204575 0  0.6875 0 0  0.7413513991851041 0.457933324954483 0  0.939453125 0.841796875 0  0.5630355154606987 0.8171875156478349 0  0.9345238095238095 0.3461466592368577 0  0.9375 0 0  1 0.0625 0  0.0625 1 0  0 0.9375 0  0.06552178593177167 0.4969053669623468 0  0.1424866619031703 0.4130277709291224 0  0.1275287182444726 0.5422946908002588 0  0.2637686595586339 0.06413888464529549 0  0.2524263535491086 0.1697437503243817 0  0.7367218397988525 0.6888573970660841 0  0.0625 0 0  0 0.0625 0  0.8463594539285995 0.7578283617857982 0  0.3128751192101563 0.2851997374369947 0  0.4015281788351144 0.1806421385113692 0  0.1910251795116588 0.4553332197174453 0  0.287797471442006 0.5222621440543902 0  0.3962628745986055 0.8097380085535307 0  0.3505895299554843 0.7304878890838692 0  0.5019151500495276 0.9356042615328103 0  0.9374389419410134 0.4999931039076005 0  0.3125 1 0  0.1875 1 0  1 0.5625 0  0.4375 1 0  1 0.3125 0  1 0.4375 0  0.8125 0 0  1 0.1875 0  0.5625 0 0  0.1875 0 0  0 0.1875 0  0 0.5625 0  0 0.6875 0  0 0.8125 0  1 0.6875 0  1 0.8125 0  0.8021696218581627 0.6612893947866073 0  0.06154922295426143 0.6239401126946708 0  0.9359375 0.9359375 0  0.4666158024849896 0.7691515918155014 0  0.2318201265217025 0.7064974250277525 0  0.1565954253579966 0.6635489312486841 0  0.1598132503680848 0.7787147500325552 0  0.3146529991605639 0.8510876378205265 0  0.1461873209418733 0.05982804528877814 0  0.06109554988524315 0.2446551776247686 0  0.8054950308560754 0.5564226538848541 0  0.470541749491976 0.8853316336952531 0  0.6948472567465137 0.4042308563372457 0  0.8802828472348889 0.4658893256343853 0  0.6788075634946739 0.7974194205806069 0  0.2155048659603867 0.2428201584940968 0  0.8131223143423806 0.2132171049028394 0  0.4330798005432235 0.6671274900735726 0  0.6015279126162613 0.2187368078743274 0  0.8061636571464289 0.8703766630361714 0  0.7008230445061776 0.3478568388444072 0  0.8638466246958771 0.3147095987735538 0  0.204801534004265 0.8789209409594009 0  0.2449006736431132 0.9424182882803838 0  0.7611268409371427 0.2643056884799992 0  0.7552800864046191 0.7678006649959446 0  0.5983639638906616 0.864113435029236 0  0.1956559506814437 0.577281203577426 0  0.3527670268164207 0.1320469097565204 0  0.7530364577483248 0.3262386077083089 0  0.4535919187979363 0.4690107087451527 0  0.8824869791666666 0.8336588541666666 0  0.8814453125 0.9451171875 0  0.5582987942628019 0.622421666543858 0  0.6817532446064828 0.6939001801354731 0  0.3830295138888889 0.9450968952922078 0  0.4140603937012541 0.05211333372716105 0  0.5535864501303013 0.3060591985391672 0  0.6560130086346878 0.2729726562211558 0  0.890203140221684 0.5948314305427268 0  0.7043857725999024 0.593980890020804 0  0.5105843922695152 0.8016828014338627 0  0.05365910753708378 0.7315110031682004 0  0.616904573672261 0.4621186633436136 0  0.5338511646455415 0.387875898899613 0  0.5231769258947843 0.4477682463140762 0  0.650302973237622 0.7370722302085519 0  0.3927483139621257 0.4662414504529014 0  0.8034595960585199 0.4972538342758211 0  0.7738337841682438 0.9496376207663251 0  0.7193737507158268 0.954685447650112 0  0.482525916480686 0.5528257169991676 0  0.2533501157346781 0.2809495420003238 0  0.3118487924482243 0.5702930126570319 0  0.6257598847669529 0.4104163315430518 0  0.1354166666666667 0.1955605158730158 0  0.04166666666666666 0.15625 0  0.3956448985530264 0.6174149462065157 0  0.8102897701818546 0.3938784238208349 0  0.2641154190013625 0.8344469561943118 0  0.642852220770013 0.5068794586563659 0  0.05271458179508221 0.355846947336007 0  0.7021551360070266 0.8921457280225779 0  0.5692125776683765 0.1328512638850284 0  0.5206162811937602 0.04865158770992991 0  0.6001838442201555 0.04540556991297563 0  0.2597716608242787 0.4118346398477178 0  0.4040584599473195 0.3179589136784675 0  0.1480337679295207 0.8941560631483065 0  0.1344356707112281 0.9466251177415842 0  0.7114696411829317 0.4983917389078826 0  0.7585704698442475 0.5751926345944629 0  0.2189131956390871 0.04022068508159698 0  0.2476935455192043 0.1123642267635843 0  0.185995005654517 0.1365524537205238 0  0.6223414373308711 0.643380839165121 0  0.5732602596637543 0.7190051747306219 0  0.268358222364537 0.6586246524467934 0  0.3265879848129173 0.2369791782191225 0  0.1267095595787346 0.7034787238999181 0  0.1115202922226038 0.6421997933884982 0  0.3128688392940203 0.07260997451790079 0  0.550724900485678 0.9253360991633187 0  0.7142608810459105 0.2384904702214873 0  0.7045869185243887 0.1871826897887429 0  0.890625 0.734375 0  0.953125 0.765625 0  0.2111812642821677 0.8286209446459138 0  0.9590293078204457 0.09375 0  0.953431269039847 0.1435719386408004 0  0.04097069217955424 0.90625 0  0.04656873096015299 0.8564280613591996 0  0.1078743037981226 0.8541621766048062 0  0.8921256962018773 0.1458378233951939 0  0.8521576979194619 0.1084496634207678 0  0.8655663982740958 0.05464346096571447 0  0.04005659640905543 0.09375 0  0.1001448316533417 0.04246776244228261 
[...]
<PointData  Vectors="f_8394-3"> 
<DataArray  type="Float64"  Name="f_8394-3"  NumberOfComponents="3" format="ascii">-1.0019928299545529e+00 -1.0019920416943033e+00 0.0000000000000000e+00  -5.4113308430899232e-01 -5.4118849207444530e-01 0.0000000000000000e+00  4.1689999582157267e-01 4.1689999582135268e-01 0.0000000000000000e+00  -5.4108872688982068e-01 -5.4117830474125828e-01 0.0000000000000000e+00  -8.7903509954938785e-01 -8.8181643184280145e-01 0.0000000000000000e+00  -6.8271173017521128e-02 -7.0828482826229847e-02 0.0000000000000000e+00  -7.0814762245997781e-02 -6.8443435606944714e-02 0.0000000000000000e+00  -8.8161320971596147e-01 -8.7893650058828243e-01 0.0000000000000000e+00  -5.4122932758698061e-01 -5.4129254608987454e-01 0.0000000000000000e+00  -9.7328229654778842e-01 -9.7061524311454284e-01 0.0000000000000000e+00  -9.7058065683059747e-01 -9.7337707628933223e-01 0.0000000000000000e+00  -3.1583953420231026e-01 -3.1332393476753417e-01 0.0000000000000000e+00  -7.3516892376799026e-01 -7.3292892391150355e-01 0.0000000000000000e+00  -3.1348942764030541e-01 -3.1582941899737554e-01 0.0000000000000000e+00  -7.3294423571010736e-01 -7.3497331828089729e-01 0.0000000000000000e+00  1.8143825438090047e-01 1.7852479767202928e-01 0.0000000000000000e+00  1.7854685964445655e-01 1.8141059919717670e-01 0.0000000000000000e+00  -5.4123677228019151e-01 -5.4133229372059988e-01 0.0000000000000000e+00  -5.4129043623682493e-01 -5.4114958650538192e-01 0.0000000000000000e+00  -8.1230645997990159e-01 -8.1238528823399792e-01 0.0000000000000000e+00  -1.9482945767349633e-01 -1.9508859712438792e-01 0.0000000000000000e+00  -7.5164255635741006e-01 -7.5165235638314276e-01 0.0000000000000000e+00  -2.7741398802285389e-01 -2.7724182791121049e-01 0.0000000000000000e+00  -9.3203525156867628e-01 -9.3208342144788725e-01 0.0000000000000000e+00  5.4121473665916860e-02 5.4370695531061247e-02 0.0000000000000000e+00  -3.2148562644758671e-01 -3.2162667209097884e-01 0.0000000000000000e+00  -7.3282451852015196e-01 -7.3273698872476634e-01 0.0000000000000000e+00  -3.2154911675079673e-01 -3.2143834976533242e-01 0.0000000000000000e+00  -7.4292185144247624e-01 -7.4284324590543171e-01 0.0000000000000000e+00  -5.4124523597624885e-01 -5.4128377778820203e-01 0.0000000000000000e+00  -5.4138059189514021e-01 -5.4119389430111220e-01 0.0000000000000000e+00  -4.1936246458148552e-01 -4.1932893049353182e-01 0.0000000000000000e+00  -8.8647786721005928e-01 -8.8641144148240092e-01 0.0000000000000000e+00  -4.8922701030229068e-02 -4.8917053568300048e-02 0.0000000000000000e+00  -6.6190400151552409e-01 -6.6197920791623299e-01 0.0000000000000000e+00  -5.9138910057755223e-01 -5.9150618798475307e-01 0.0000000000000000e+00  -6.7654185672766554e-01 -6.7671955530881289e-01 0.0000000000000000e+00  -6.9746528462596746e-01 -6.9761049431845568e-01 0.0000000000000000e+00  -3.5978959488212336e-01 -3.5990416512919188e-01 0.0000000000000000e+00  -8.1984152503337161e-03 -8.4584686469010677e-03 0.0000000000000000e+00  -8.5558039523278318e-01 -8.5544717377492707e-01 0.0000000000000000e+00  -1.9396166036732898e-01 -1.9399717733002159e-01 0.0000000000000000e+00  -9.9384516411711565e-01 -9.9720332012225099e-01 0.0000000000000000e+00  -9.9729445620030299e-01 -9.9389018736512158e-01 0.0000000000000000e+00  3.0336172801371991e-01 3.0001449617132359e-01 0.0000000000000000e+00  3.0003212040133731e-01 3.0320344257762744e-01 0.0000000000000000e+00  -8.2408077895335596e-01 -8.2393630951176111e-01 0.0000000000000000e+00  -8.2576347428995400e-01 -8.2581318258450476e-01 0.0000000000000000e+00  -1.2289878852590197e-01 -1.2267688016758897e-01 0.0000000000000000e+00  -8.1239839457221308e-01 -8.1497744582982268e-01 0.0000000000000000e+00  -9.3197958034677586e-01 -9.3475946428329892e-01 0.0000000000000000e+00  -4.3190643404828083e-01 -4.2975534628123890e-01 0.0000000000000000e+00  -6.4205627356871053e-01 -6.4461902757023237e-01 0.0000000000000000e+00  -9.3479790024365805e-01 -9.3209876881039799e-01 0.0000000000000000e+00  -8.1500708320544113e-01 -8.1236320561185960e-01 0.0000000000000000e+00  -1.9234059940696174e-01 -1.9489164601981523e-01 0.0000000000000000e+00  -1.9485733904958896e-01 -1.9236470099340958e-01 0.0000000000000000e+00  -4.2989289224820348e-01 -4.3186306031962923e-01 0.0000000000000000e+00  -6.4444568785699685e-01 -6.4204765803605834e-01 0.0000000000000000e+00  5.4239799788747912e-02 5.6925470534561207e-02 0.0000000000000000e+00  5.6722106794163153e-02 5.4260490190247382e-02 0.0000000000000000e+00  -9.1542731016232581e-01 -9.1562400691544554e-01 0.0000000000000000e+00  -4.0059998388442419e-01 -4.0047475596664900e-01 0.0000000000000000e+00  -1.5897006833569252e-01 -1.5895190068099502e-01 0.0000000000000000e+00  -4.3990162714534597e-01 -4.3987731910043992e-01 0.0000000000000000e+00  -6.2736533499068559e-01 -6.2727013089778805e-01 0.0000000000000000e+00  -6.7552981129331802e-01 -6.7550670952029090e-01 0.0000000000000000e+00  -4.0816098336367024e-01 -4.0822346469001669e-01 0.0000000000000000e+00  -4.6063303071659351e-01 -4.6074466461035607e-01 0.0000000000000000e+00  -4.0891204310212970e-01 -4.0908462668286505e-01 0.0000000000000000e+00  -5.4228758836417645e-01 -5.4229267914849033e-01 0.0000000000000000e+00  -6.3814520294081645e-01 -6.3801889507889276e-01 0.0000000000000000e+00  -7.2381042490602165e-01 -7.2346806818246101e-01 0.0000000000000000e+00  -9.6558189645477077e-01 -9.6476647555273054e-01 0.0000000000000000e+00  -9.5937427107781825e-01 -9.5987036166210093e-01 0.0000000000000000e+00  -8.7468498252174809e-01 -8.7457223528006089e-01 0.0000000000000000e+00  1.1691601372755994e-01 1.1635286940889741e-01 0.0000000000000000e+00  2.0909537862065686e-01 2.0926871879127568e-01 0.0000000000000000e+00  8.1081058603650905e-02 8.1258863323491776e-02 0.0000000000000000e+00  -8.0151505654010335e-01 -8.0178769626568958e-01 0.0000000000000000e+00  -9.8513788243444778e-01 -9.8520054287779546e-01 0.0000000000000000e+00  -7.8514705269369856e-01 -7.8520494666691809e-01 0.0000000000000000e+00  -2.8812274237266661e-01 -2.8796430680204788e-01 0.0000000000000000e+00  -5.3458372230245343e-01 -5.3456756086441626e-01 0.0000000000000000e+00  -5.7359746836667491e-01 -5.7359938647225928e-01 0.0000000000000000e+00  -6.3639016911372603e-01 -6.3576643259263110e-01 0.0000000000000000e+00  -5.4114528280338881e-01 -5.4063910705936458e-01 0.0000000000000000e+00  -4.3869039737442284e-01 -4.3939117031547892e-01 0.0000000000000000e+00  -5.4100601992335084e-01 -5.4161744217469709e-01 0.0000000000000000e+00  -6.3594492924371560e-01 -6.3622644467173139e-01 0.0000000000000000e+00  -5.1820600612811318e-01 -5.1840734040093261e-01 0.0000000000000000e+00  -3.7169331318644416e-01 -3.7211387302720522e-01 0.0000000000000000e+00  -5.5118712624976293e-02 -5.5299784164649771e-02 0.0000000000000000e+00  -1.9702596598864480e-01 -1.9782938973796979e-01 0.0000000000000000e+00  -1.9782627821411516e-01 -1.9699881890438412e-01 0.0000000000000000e+00  -5.0899274270808936e-01 -5.0898376295798409e-01 0.0000000000000000e+00  -8.1133436388810021e-01 -8.1073429298095778e-01 0.0000000000000000e+00  -7.2803012867879269e-02 -7.3419402498873118e-02 0.0000000000000000e+00  -2.8299504800048891e-01 -2.8307160721967339e-01 0.0000000000000000e+00  -4.3379719606827616e-01 -4.3280119346770990e-01 0.0000000000000000e+00  -2.5739801114684996e-01 -2.5737393048535079e-01 0.0000000000000000e+00  -1.6495818214309860e-01 -1.6478163472060156e-01 0.0000000000000000e+00  -4.3584569897839293e-01 -4.3576100303093879e-01 0.0000000000000000e+00  -4.5743378562065434e-01 -4.5739070568744555e-01 0.0000000000000000e+00  -6.3814585424422465e-01 -6.3823602119113221e-01 0.0000000000000000e+00  -9.2469310210175981e-01 -9.2457394209835642e-01 0.0000000000000000e+00  -9.5565185287227350e-01 -9.5304944430586969e-01 0.0000000000000000e+00  -8.2501052711115141e-01 -8.2499343398508085e-01 0.0000000000000000e+00  -1.2599883240550516e-01 -1.2615740386206761e-01 0.0000000000000000e+00  1.1662332740739793e-01 1.1940192659207986e-01 0.0000000000000000e+00  -6.5090542789016681e-01 -6.5079780460948378e-01 0.0000000000000000e+00  -9.0958345961388376e-01 -9.0740317912827828e-01 0.0000000000000000e+00  -8.8735834718711548e-01 -8.8677505349777563e-01 0.0000000000000000e+00  -6.7559163234300057e-01 -6.7566039851704862e-01 0.0000000000000000e+00  -7.7345933594077243e-01 -7.7368700433943305e-01 0.0000000000000000e+00  -7.4311055739023391e-01 -7.4312433019445479e-01 0.0000000000000000e+00  -6.2890302678103538e-01 -6.2889953179058167e-01 0.0000000000000000e+00  -2.9934011070714872e-01 -2.9943279633806807e-01 0.0000000000000000e+00  -1.8678637443546482e-02 -1.8529150305696476e-02 0.0000000000000000e+00  -3.4184152133682894e-01 -3.4178886866590108e-01 0.0000000000000000e+00  -7.5558269512319809e-01 -7.5559459877019863e-01 0.0000000000000000e+00  -3.0338684744290378e-01 -3.0274278316344305e-01 0.0000000000000000e+00  2.3978039404930090e-01 2.4281483225297895e-01 0.0000000000000000e+00  -5.9617129320184414e-01 -5.9595791663359154e-01 0.0000000000000000e+00  -7.1003990492532298e-01 -7.1008464265910054e-01 0.0000000000000000e+00  3.6209834592052320e-01 3.5914160580645849e-01 0.0000000000000000e+00  -8.7861940141428818e-01 -8.7858124381744795e-01 0.0000000000000000e+00  -8.3120604820831334e-03 -5.7558585530494456e-03 0.0000000000000000e+00  -4.7671888897814672e-02 -4.7016811688572538e-02 0.0000000000000000e+00  -7.5414922219795810e-01 -7.5483702509419659e-01 0.0000000000000000e+00  -8.6861229877786006e-01 -8.6868020355493614e-01 0.0000000000000000e+00  -2.5597638327340921e-01 -2.5609376016198876e-01 0.0000000000000000e+00  -5.9502715996489952e-01 -5.9496073089248291e-01 0.0000000000000000e+00  -6.8963777527651149e-01 -6.9021105730786747e-01 0.0000000000000000e+00  -7.2063055395153097e-01 -7.2066510360471425e-01 0.0000000000000000e+00  -3.4258147900615199e-01 -3.4262852065812183e-01 0.0000000000000000e+00  -3.7638030487833152e-01 -3.7614491902593405e-01 0.0000000000000000e+00  -9.3096321794023784e-01 -9.3056852729964479e-01 0.0000000000000000e+00  -4.5022700300996593e-01 -4.5026115728270744e-01 0.0000000000000000e+00  -7.5983375716008161e-01 -7.5982067045716162e-01 0.0000000000000000e+00  -9.0657297887231125e-01 -9.0701197733076766e-01 0.0000000000000000e+00  -8.1012525748464648e-01 -8.1009010580927043e-01 0.0000000000000000e+00  -9.0734845908739814e-01 -9.1012321870077650e-01 0.0000000000000000e+00  -8.6220667150865737e-01 -8.6326509398252638e-01 0.0000000000000000e+00  8.6414206726048798e-02 8.5378377121208826e-02 0.0000000000000000e+00  -7.3367515181236645e-03 -8.0447850169065305e-03 0.0000000000000000e+00  3.5920282107049478e-01 3.6211068232974836e-01 0.0000000000000000e+00  3.1500433584627043e-02 3.2294392763628270e-02 0.0000000000000000e+00  -6.5555915203294113e-01 -6.5578686685647347e-01 0.0000000000000000e+00  -4.6026672097317289e-01 -4.6048646243143432e-01 0.0000000000000000e+00  -5.9720544162010680e-01 -5.9726596304691648e-01 0.0000000000000000e+00  -9.6295251731594222e-01 -9.6309676557090595e-01 0.0000000000000000e+00  -9.5316001345985191e-01 -9.5597546396879896e-01 0.0000000000000000e+00  1.7838438886071273e-01 1.7906683735394333e-01 0.0000000000000000e+00  -7.0222287190691468e-01 -7.0219440412997414e-01 0.0000000000000000e+00  -5.2673294985693930e-01 -5.2677453472502578e-01 0.0000000000000000e+00  -4.0988991669900798e-01 -4.0995466160785932e-01 0.0000000000000000e+00  -6.1685898107909831e-01 -6.1688567012561013e-01 0.0000000000000000e+00  -7.7413467329588370e-01 -7.7660149263159772e-01 0.0000000000000000e+00  -3.6368385178773599e-01 -3.6374548779428190e-01 0.0000000000000000e+00  2.1038615437267416e-01 2.0925865140577463e-01 0.0000000000000000e+00  -1.8984580622634323e-01 -1.8969358529667610e-01 0.0000000000000000e+00  -2.8583679973616810e-01 -2.8657878551056598e-01 0.0000000000000000e+00  -5.9276582439980674e-01 -5.9449110188895649e-01 0.0000000000000000e+00  -4.8599378080506866e-01 -4.8750259839363180e-01 0.0000000000000000e+00  -4.8745165980571359e-01 -4.8582112284474499e-01 0.0000000000000000e+00  -5.9454777129528424e-01 -5.9279002609089715e-01 0.0000000000000000e+00  -8.4816549780437456e-01 -8.4764573296281964e-01 0.0000000000000000e+00  -8.5112164223039155e-01 -8.5124333642453764e-01 0.0000000000000000e+00  -7.8525937599716111e-01 -7.8539138371414863e-01 0.0000000000000000e+00  -9.4839177092108651e-01 -9.4926234531040965e-01 0.0000000000000000e+00  -9.1390853568159780e-01 -9.1387672388728047e-01 0.0000000000000000e+00  -1.4495905058040121e-01 -1.4512077419803901e-01 0.0000000000000000e+00  -9.9972124248281691e-01 -1.0031247991808421e+00 0.0000000000000000e+00  -1.0031500591813109e+00 -9.9970077197713758e-01 0.0000000000000000e+00  3.3513383334022921e-02 3.3258278138277933e-02 0.0000000000000000e+00  -8.2780283902653096e-01 -8.2799623305799930e-01 0.0000000000000000e+00  -8.3675874822053364e-01 -8.3677389342272779e-01 0.0000000000000000e+00  -7.9976779771503459e-01 -7.9956582191140646e-01 0.0000000000000000e+00  -6.9062597295700168e-01 -6.9068686429127724e-01 0.0000000000000000e+00  -3.5735927914767918e-01 -3.5743208088914213e-01 0.0000000000000000e+00  -4.7125965031670469e-01 -4.7113662303215442e-01 0.0000000000000000e+00  -1.3313575555208060e-01 -1.3224366100812510e-01 0.0000000000000000e+00  -1.3235506808679059e-01 -1.3324425878072338e-01 0.0000000000000000e+00  -2.5583034905956886e-01 -2.5329849183392794e-01 0.0000000000000000e+00  -3.7461334472452446e-01 -3.7224736824579041e-01 0.0000000000000000e+00  -5.8258558721985890e-03 -8.3545682422310023e-03 0.0000000000000000e+00  -1.3310442876157491e-01 -1.3071989510716395e-01 0.0000000000000000e+00  -2.5338947216310387e-01 -2.5584216377143282e-01 0.0000000000000000e+00  -1.3060515479931789e-01 -1.3313677783236788e-01 0.0000000000000000e+00  -6.8880774728948013e-01 -6.9135001863894907e-01 0.0000000000000000e+00  -3.7239082753352015e-01 -3.7457711613866279e-01 0.0000000000000000e+00  -8.4728915979688380e-01 -8.4992537460207895e-01 0.0000000000000000e+00  -9.8416939341490961e-01 -9.8704163118950194e-01 0.0000000000000000e+00  -9.8728889789468810e-01 -9.8413366074297115e-01 0.0000000000000000e+00  -8.5025548368021020e-01 -8.4746792987741293e-01 0.0000000000000000e+00  -7.7627078191566479e-01 -7.7417164036898301e-01 0.0000000000000000e+00  -6.9136271153805839e-01 -6.8890124048061396e-01 0.0000000000000000e+00  1.1923361525292474e-01 1.1661912715758196e-01 0.0000000000000000e+00  2.4287705301338741e-01 2.3982816839846577e-01 0.0000000000000000e+00  -1.0716229925847603e-01 -1.0751176711457391e-01 0.0000000000000000e+00  -7.7632394462632548e-01 -7.7520093349414343e-01 0.0000000000000000e+00  2.9797531567812469e-01 2.9794743170591398e-01 0.0000000000000000e+00  -3.2951039760609813e-01 -3.2924984827412568e-01 0.0000000000000000e+00  -5.9220528791136262e-01 -5.9202995908953360e-01 0.0000000000000000e+00  -6.8335083576928035e-01 -6.8326178107654301e-01 0.0000000000000000e+00  -5.9207609973549835e-01 -5.9217332922185151e-01 0.0000000000000000e+00  -3.9474908388418112e-01 -3.9469990250734688e-01 0.0000000000000000e+00  -9.8009211636310756e-01 -9.8169155288524435e-01 0.0000000000000000e+00  -9.5629665962122212e-01 -9.5501074169301825e-01 0.0000000000000000e+00  -2.0765760476483974e-01 -2.0763394386801751e-01 0.0000000000000000e+00  -2.1366846717753146e-01 -2.1354516306127919e-01 0.0000000000000000e+00  -4.5523723968174579e-01 -4.5524555341262696e-01 0.0000000000000000e+00  -2.2301226949620798e-01 -2.2312049325734146e-01 0.0000000000000000e+00  -9.4714085691341127e-02 -9.4507905679682438e-02 0.0000000000000000e+00  -8.9832361798223315e-01 -8.9836042223318346e-01 0.0000000000000000e+00  -5.1884885882731924e-01 -5.1877400616957625e-01 0.0000000000000000e+00  -4.5425624631845363e-01 -4.5420798226249037e-01 0.0000000000000000e+00  -6.8320694895029976e-01 -6.8330346399044661e-01 0.0000000000000000e+00  1.0562051609247866e-01 1.0571031376006174e-01 0.0000000000000000e+00  -4.9957524993673996e-01 -4.9966161602985315e-01 0.0000000000000000e+00  -3.8285583312311677e-01 -3.8301806754589374e-01 0.0000000000000000e+00  -4.6890426336359142e-01 -4.6875186026973897e-01 0.0000000000000000e+00  -3.7487642614598549e-01 -3.7374030907878436e-01 0.0000000000000000e+00  -5.1966963365642260e-01 -5.1968249168772629e-01 0.0000000000000000e+00  -4.7801690143887264e-02 -4.7678111057863883e-02 0.0000000000000000e+00  -1.0842577306432549e-01 -1.0828231580965259e-01 0.0000000000000000e+00  -7.1723648664039841e-01 -7.1706074947072018e-01 0.0000000000000000e+00  -8.8609723457189693e-01 -8.8623712868583238e-01 0.0000000000000000e+00  -4.7286460416223164e-01 -4.7287023421511648e-01 0.0000000000000000e+00  -6.0471884761859040e-01 -6.0479680320913487e-01 0.0000000000000000e+00  1.4504813383170825e-01 1.4513223626295463e-01 0.0000000000000000e+00  2.5320789347372652e-01 2.5480806573532444e-01 0.0000000000000000e+00  -3.8095900200964783e-01 -3.8103597468767814e-01 0.0000000000000000e+00  -1.9440033235078424e-01 -1.9428484002451479e-01 0.0000000000000000e+00  -2.4066632925226633e-01 -2.3970447553017524e-01 0.0000000000000000e+00  -8.9507146118383496e-01 -8.9619185839508397e-01 0.0000000000000000e+00  -6.5390265423772265e-01 -6.5389931593070816e-01 0.0000000000000000e+00  -5.9961146333289528e-01 -5.9967927680951416e-01 0.0000000000000000e+00  -8.5702439838413552e-02 -8.5810847201505946e-02 0.0000000000000000e+00  -2.6959846070741134e-01 -2.6971355412240505e-01 0.0000000000000000e+00  -2.5612312068167631e-01 -2.5600917219881919e-01 0.0000000000000000e+00  -7.0960212511686560e-01 -7.0858912712960143e-01 0.0000000000000000e+00  -4.7314869141930765e-01 -4.7299034661083950e-01 0.0000000000000000e+00  -6.0555311205120266e-01 -6.0556227716926103e-01 0.0000000000000000e+00  -5.6553777397206162e-01 -5.6554000349089373e-01 0.0000000000000000e+00  -1.8282219844125333e-01 -1.8267616169706385e-01 0.0000000000000000e+00  -6.5432586640241730e-01 -6.5439121972068859e-01 0.0000000000000000e+00  -2.6716901722972652e-01 -2.6724406237150011e-01 0.0000000000000000e+00  1.5221129583359078e-01 1.5381115853277247e-01 0.0000000000000000e+00  1.0321870982535095e-01 1.0487670949835151e-01 0.0000000000000000e+00  -5.1111980880681784e-01 -5.1113401934278191e-01 0.0000000000000000e+00  -8.6218892567548644e-01 -8.6218870190222074e-01 0.0000000000000000e+00  -6.3661232507061116e-01 -6.3658723050298405e-01 0.0000000000000000e+00  -5.1042832090122459e-01 -5.1049078426416461e-01 0.0000000000000000e+00  -9.4736732369845511e-01 -9.4715882289780173e-01 0.0000000000000000e+00  -9.8414281494939471e-01 -9.8179963770457523e-01 0.0000000000000000e+00  -5.3014848441374274e-01 -5.3031532019327998e-01 0.0000000000000000e+00  -3.5912335960294373e-01 -3.5918982504287550e-01 0.0000000000000000e+00  -4.5559815373733092e-01 -4.5572220099729538e-01 0.0000000000000000e+00  -4.0953451029547383e-01 -4.0937528675871482e-01 0.0000000000000000e+00  -9.2046500629615702e-01 -9.1938346416439787e-01 0.0000000000000000e+00  2.3493479624636122e-02 2.3584497211749988e-02 0.0000000000000000e+00  -7.6481755737675172e-01 -7.6485652197576459e-01 0.0000000000000000e+00  -8.4356309603983937e-01 -8.4521138623774250e-01 0.0000000000000000e+00  -8.0002764998229470e-01 -8.0168426121319758e-01 0.0000000000000000e+00  -7.8423636188833679e-01 -7.8409406465933329e-01 0.0000000000000000e+00  -7.5183050387349581e-01 -7.5168536041723155e-01 0.0000000000000000e+00  -5.0529849765170398e-01 -5.0497428823052770e-01 0.0000000000000000e+00  -4.7118471456408850e-01 -4.7007685411944994e-01 0.0000000000000000e+00  -3.5379029265111744e-01 -3.5368012817081745e-01 0.0000000000000000e+00  -2.3521562584688469e-01 -2.3524142386826638e-01 0.0000000000000000e+00  -9.6817924701964386e-01 -9.7007106566920887e-01 0.0000000000000000e+00  -9.3737634444848705e-01 -9.3767804895959472e-01 0.0000000000000000e+00  -9.4990263463395030e-01 -9.5006312201210052e-01 0.0000000000000000e+00  -3.0090100626378447e-01 -3.0098200931479885e-01 0.0000000000000000e+00  -2.7540518737295289e-01 -2.7537261516105366e-01 0.0000000000000000e+00