<?xml version="1.0"?>
<VTKFile type="UnstructuredGrid"  version="0.1"  >
<UnstructuredGrid>
<Piece  NumberOfPoints="1385" NumberOfCells="2640">
<Points>
<DataArray  type="Float64"  NumberOfComponents="3"  format="ascii">0 0 0  1 0 0  1 1 0  0 1 0  0.5 0 0  1 0.5 0  0.5 1 0  0 0.5 0  0.5 0.5 0  0 0.25 0  0.25 0 0  0.25 1 0  0 0.75 0  1 0.25 0  0.75 0 0  1 0.75 0  0.75 1 0  0.7083333333333333 0.2916666666666667 0  0.2916666666666666 0.7083333333333334 0  0.375 0.25 0  0.75 0.625 0  0.2569444444444444 0.4652777777777778 0  0.5366379310344828 0.7535919540229885 0  0.1875 0.1875 0  0.8125 0.8125 0  0.869047619047619 0.375 0  0.1450441919191919 0.6052714646464646 0  0.375 0.8690476190476191 0  0.5526960784313725 0.1825980392156862 0  0.8385416666666666 0.1614583333333334 0  0.1614583333333333 0.8385416666666667 0  0.6736111111111112 0.4652777777777778 0  0.1367521367521368 0.3477564102564102 0  0.6570970491253563 0.8648656830417855 0  0.5102479397556124 0.3386260301221938 0  0.3654513888888889 0.5737847222222222 0  0.6929750044954185 0.1362784921584263 0  0.388576102743835 0.411911725237599 0  0.6091269841269842 0.5942460317460317 0  0.875 0.6875 0  0.427278890279516 0.119889445139758 0  0.8544456845238095 0.5213913690476191 0  0.125 0 0  0 0.125 0  1 0.875 0  0.875 1 0  0.1280008648150532 0.4769292340226777 0  0.2695382451711197 0.3321750950221553 0  0.7031567235715964 0.7447810921428012 0  0.625 0 0  0.375 0 0  0.125 1 0  0.875 0 0  0 0.375 0  0 0.625 0  1 0.375 0  0.375 1 0  1 0.125 0  0 0.875 0  0.625 1 0  1 0.625 0  0.2979288363930608 0.1201429454643536 0  0.410919540229885 0.7484605911330049 0  0.5325041980395562 0.878905151526474 0  0.4831670727569156 0.6331060043826487 0  0.1735997378973042 0.7204747378973043 0  0.2534919507575758 0.5772372159090909 0  0.2633928571428572 0.8876488095238095 0  0.8199404761904761 0.2730654761904762 0  0.75830270586982 0.3919383189517417 0  0.5750282248382511 0.4237522353023667 0  0.6008360210023379 0.2794828358598495 0  0.08163442644334186 0.6821295860397322 0  0.08333333333333333 0.1875 0  0.2028380815996574 0.08844602719988583 0  0.2766521142611967 0.2325436572164097 0  0.90625 0.78125 0  0.890625 0.890625 0  0.7545696325008384 0.8973565441669461 0  0.5625 0.08086590340834317 0  0.09077380952380953 0.09077380952380952 0  0.4610923478694773 0.209034015149656 0  0.7542527598351648 0.5248380520595106 0  0.6459235536037465 0.3619913988405765 0  0.7560381768882634 0.20506142233852 0  0.07073252688172042 0.8125 0  0.0924753097241701 0.9078102849914793 0  0.9292674731182795 0.1875 0  0.9075246902758297 0.09218971500852073 0  0.8125 0.07073252688172045 0  0.2400955776842301 0.7869705776842302 0  0.9121050213379069 0.2781978201831695 0  0.7916878157143976 0.7239689078571988 0  0.9345238095238094 0.4375 0  0.4375 0.9345238095238095 0  0.3725616989755203 0.6651895248862173 0  0.06536271996350887 0.5625 0  0.9348362560379583 0.5625 0  0.456646798987055 0.8277247094351965 0  0.1875 0.9355758238725954 0  0.6169761231634859 0.6939779188977889 0  0.6226854751147515 0.7827911461419014 0  0.3305695598137626 0.7901697871282585 0  0.5865305325818898 0.5101085479043448 0  0.6622701297028378 0.2177663989757395 0  0.1354166666666667 0.2591702279202279 0  0 0.3125 0  0.2094429575680048 0.3936361846162499 0  0.836666296419157 0.607917407161686 0  0.6875 1 0  0.214261555450504 0.6492551722020035 0  0 0.4375 0  0.07731537126068377 0.40625 0  0.3427725432967068 0.4879566233699599 0  0.3550792513951871 0.3331953632609953 0  0.4462473953896857 0.2887834789342508 0  0.4747801464819794 0.417386052030127 0  0.8229836475148948 0.4443292349237342 0  0.7322605135514757 0.8199240278289671 0  0.6756431877205955 0.5468989748126787 0  0.1968419507215863 0.5194573482612496 0  0.3285590277777778 0.9345238095238095 0  0.8125 1 0  0.4198917601920009 0.5134893045331258 0  0.5232405503206691 0.2595791787880157 0  1 0.9375 0  0.1987510870015086 0.3025185951894431 0  0.5625 1 0  0.6005390654136388 0.9228110509230952 0  0.6411254848194414 0.07704872765442942 0  0.3357233162523242 0.1855113224530532 0  0.6730653396610877 0.6393887462324165 0  0.310966987234063 0.6240019765311626 0  0.7368737836204349 0.07457755202327881 0  0.6192316414418171 0.1485238406378594 0  0.5432429670607106 0.678552703844006 0  0.4754371679695679 0.7103946803120881 0  0.07501324890749672 0.3043839897335739 0  0.5358146975860403 0.5688321463205916 0  0.3115271739500156 0.3982137365971444 0  0.3625191397122174 0.0767854603650549 0  0.5024029442563831 0.1264128223758444 0  0.4375 0 0  0.4699946908887376 0.06379961173775725 0  0.9375 0.71875 0  0.9272105898044465 0.635671179608893 0  0.9375 1 0  0.6690971819568612 0.9331530898202766 0  0.1073454944778885 0.7499206387638554 0  0.8699082999280406 0.2232403652524313 0  0.5773118091863964 0.3548027349159383 0  0.1354166666666667 0.1428571428571428 0  0.3125 0 0  0.8241684193077341 0.9257452995055244 0  0.4352314948354036 0.3586940847489378 0  0.4351301473778832 0.5819726043539077 0  0.8073232928518163 0.3419398170341962 0  0.7775949246947366 0.1298519409204575 0  0.6875 0 0  0.7413513991851041 0.457933324954483 0  0.939453125 0.841796875 0  0.5630355154606987 0.8171875156478349 0  0.9345238095238095 0.3461466592368577 0  0.9375 0 0  1 0.0625 0  0.0625 1 0  0 0.9375 0  0.06552178593177167 0.4969053669623468 0  0.1424866619031703 0.4130277709291224 0  0.1275287182444726 0.5422946908002588 0  0.2637686595586339 0.06413888464529549 0  0.2524263535491086 0.1697437503243817 0  0.7367218397988525 0.6888573970660841 0  0.0625 0 0  0 0.0625 0  0.8463594539285995 0.7578283617857982 0  0.3128751192101563 0.2851997374369947 0  0.4015281788351144 0.1806421385113692 0  0.1910251795116588 0.4553332197174453 0  0.287797471442006 0.5222621440543902 0  0.3962628745986055 0.8097380085535307 0  0.3505895299554843 0.7304878890838692 0  0.5019151500495276 0.9356042615328103 0  0.9374389419410134 0.4999931039076005 0  0.3125 1 0  0.1875 1 0  1 0.5625 0  0.4375 1 0  1 0.3125 0  1 0.4375 0  0.8125 0 0  1 0.1875 0  0.5625 0 0  0.1875 0 0  0 0.1875 0  0 0.5625 0  0 0.6875 0  0 0.8125 0  1 0.6875 0  1 0.8125 0  0.8021696218581627 0.6612893947866073 0  0.06154922295426143 0.6239401126946708 0  0.9359375 0.9359375 0  0.4666158024849896 0.7691515918155014 0  0.2318201265217025 0.7064974250277525 0  0.1565954253579966 0.6635489312486841 0  0.1598132503680848 0.7787147500325552 0  0.3146529991605639 0.8510876378205265 0  0.1461873209418733 0.05982804528877814 0  0.06109554988524315 0.2446551776247686 0  0.8054950308560754 0.5564226538848541 0  0.470541749491976 0.8853316336952531 0  0.6948472567465137 0.4042308563372457 0  0.8802828472348889 0.4658893256343853 0  0.6788075634946739 0.7974194205806069 0  0.2155048659603867 0.2428201584940968 0  0.8131223143423806 0.2132171049028394 0  0.4330798005432235 0.6671274900735726 0  0.6015279126162613 0.2187368078743274 0  0.8061636571464289 0.8703766630361714 0  0.7008230445061776 0.3478568388444072 0  0.8638466246958771 0.3147095987735538 0  0.204801534004265 0.8789209409594009 0  0.2449006736431132 0.9424182882803838 0  0.7611268409371427 0.2643056884799992 0  0.7552800864046191 0.7678006649959446 0  0.5983639638906616 0.864113435029236 0  0.1956559506814437 0.577281203577426 0  0.3527670268164207 0.1320469097565204 0  0.7530364577483248 0.3262386077083089 0  0.4535919187979363 0.4690107087451527 0  0.8824869791666666 0.8336588541666666 0  0.8814453125 0.9451171875 0  0.5582987942628019 0.622421666543858 0  0.6817532446064828 0.6939001801354731 0  0.3830295138888889 0.9450968952922078 0  0.4140603937012541 0.05211333372716105 0  0.5535864501303013 0.3060591985391672 0  0.6560130086346878 0.2729726562211558 0  0.890203140221684 0.5948314305427268 0  0.7043857725999024 0.593980890020804 0  0.5105843922695152 0.8016828014338627 0  0.05365910753708378 0.7315110031682004 0  0.616904573672261 0.4621186633436136 0  0.5338511646455415 0.387875898899613 0  0.5231769258947843 0.4477682463140762 0  0.650302973237622 0.7370722302085519 0  0.3927483139621257 0.4662414504529014 0  0.8034595960585199 0.4972538342758211 0  0.7738337841682438 0.9496376207663251 0  0.7193737507158268 0.954685447650112 0  0.482525916480686 0.5528257169991676 0  0.2533501157346781 0.2809495420003238 0  0.3118487924482243 0.5702930126570319 0  0.6257598847669529 0.4104163315430518 0  0.1354166666666667 0.1955605158730158 0  0.04166666666666666 0.15625 0  0.3956448985530264 0.6174149462065157 0  0.8102897701818546 0.3938784238208349 0  0.2641154190013625 0.8344469561943118 0  0.642852220770013 0.5068794586563659 0  0.05271458179508221 0.355846947336007 0  0.7021551360070266 0.8921457280225779 0  0.5692125776683765 0.1328512638850284 0  0.5206162811937602 0.04865158770992991 0  0.6001838442201555 0.04540556991297563 0  0.2597716608242787 0.4118346398477178 0  0.4040584599473195 0.3179589136784675 0  0.1480337679295207 0.8941560631483065 0  0.1344356707112281 0.9466251177415842 0  0.7114696411829317 0.4983917389078826 0  0.7585704698442475 0.5751926345944629 0  0.2189131956390871 0.04022068508159698 0  0.2476935455192043 0.1123642267635843 0  0.185995005654517 0.1365524537205238 0  0.6223414373308711 0.643380839165121 0  0.5732602596637543 0.7190051747306219 0  0.268358222364537 0.6586246524467934 0  0.3265879848129173 0.2369791782191225 0  0.1267095595787346 0.7034787238999181 0  0.1115202922226038 0.6421997933884982 0  0.3128688392940203 0.07260997451790079 0  0.550724900485678 0.9253360991633187 0  0.7142608810459105 0.2384904702214873 0  0.7045869185243887 0.1871826897887429 0  0.890625 0.734375 0  0.953125 0.765625 0  0.2111812642821677 0.8286209446459138 0  0.9590293078204457 0.09375 0  0.953431269039847 0.1435719386408004 0  0.04097069217955424 0.90625 0  0.04656873096015299 0.8564280613591996 0  0.1078743037981226 0.8541621766048062 0  0.8921256962018773 0.1458378233951939 0  0.8521576979194619 0.1084496634207678 0  0.8655663982740958 0.05464346096571447 0  0.04005659640905543 0.09375 0  0.1001448316533417 0.04246776244228261 
[...]
<PointData  Vectors="f_8394-3"> 
<DataArray  type="Float64"  Name="f_8394-3"  NumberOfComponents="3" format="ascii">-1.0035038998747319e+00 -1.0033524081410190e+00 0.0000000000000000e+00  -5.4037060363598755e-01 -5.4078591592346048e-01 0.0000000000000000e+00  4.1678639794933575e-01 4.1678639794912264e-01 0.0000000000000000e+00  -5.4059312371770418e-01 -5.4048406871011168e-01 0.0000000000000000e+00  -8.7796215634983665e-01 -8.8314501419465086e-01 0.0000000000000000e+00  -6.5440637431965751e-02 -7.0712428168538441e-02 0.0000000000000000e+00  -7.0587108716265459e-02 -6.6301696427486317e-02 0.0000000000000000e+00  -8.8224263659185054e-01 -8.7796225321142263e-01 0.0000000000000000e+00  -5.4063454720172399e-01 -5.4074177417636904e-01 0.0000000000000000e+00  -9.7391773666775427e-01 -9.6937450460782937e-01 0.0000000000000000e+00  -9.6943195019089179e-01 -9.7482415965432412e-01 0.0000000000000000e+00  -3.1547517168390105e-01 -3.1023189435172355e-01 0.0000000000000000e+00  -7.3673926383799460e-01 -7.3187543183983228e-01 0.0000000000000000e+00  -3.1067943377178914e-01 -3.1546142765226198e-01 0.0000000000000000e+00  -7.3215668834838588e-01 -7.3592462041729079e-01 0.0000000000000000e+00  1.8416165261458595e-01 1.7831996395951580e-01 0.0000000000000000e+00  1.7838699237088726e-01 1.8385398855037252e-01 0.0000000000000000e+00  -5.4062730614056664e-01 -5.4101561268473763e-01 0.0000000000000000e+00  -5.4049053697312188e-01 -5.4049730452672062e-01 0.0000000000000000e+00  -8.1132915714252840e-01 -8.1140695610960178e-01 0.0000000000000000e+00  -1.9463675849221124e-01 -1.9495097041941462e-01 0.0000000000000000e+00  -7.5113497470237434e-01 -7.5077275438791125e-01 0.0000000000000000e+00  -2.7693592037072079e-01 -2.7674385056597617e-01 0.0000000000000000e+00  -9.3095973420378741e-01 -9.3131961450463796e-01 0.0000000000000000e+00  5.3675600472316051e-02 5.4471951377856501e-02 0.0000000000000000e+00  -3.2109482799373962e-01 -3.2142364512058935e-01 0.0000000000000000e+00  -7.3200514443546338e-01 -7.3193403666830315e-01 0.0000000000000000e+00  -3.2139159158720004e-01 -3.2089117837173148e-01 0.0000000000000000e+00  -7.4211609119525024e-01 -7.4227976038200993e-01 0.0000000000000000e+00  -5.4080159347063483e-01 -5.4075502296620914e-01 0.0000000000000000e+00  -5.4124316198539635e-01 -5.4046251607542073e-01 0.0000000000000000e+00  -4.1865913794442938e-01 -4.1895101502731430e-01 0.0000000000000000e+00  -8.8549438218511689e-01 -8.8519906609740884e-01 0.0000000000000000e+00  -4.8793701074886356e-02 -4.8993211040014438e-02 0.0000000000000000e+00  -6.6105135323760322e-01 -6.6128180636247158e-01 0.0000000000000000e+00  -5.9051329762072358e-01 -5.9088702295563444e-01 0.0000000000000000e+00  -6.7589527382702430e-01 -6.7598617768701075e-01 0.0000000000000000e+00  -6.9676769587103915e-01 -6.9687341593658969e-01 0.0000000000000000e+00  -3.5942093191045721e-01 -3.5949023910108335e-01 0.0000000000000000e+00  -8.2220968581704947e-03 -8.3340087275580298e-03 0.0000000000000000e+00  -8.5460627438416858e-01 -8.5448013220404706e-01 0.0000000000000000e+00  -1.9365714635591513e-01 -1.9386314315802639e-01 0.0000000000000000e+00  -9.9269590806592256e-01 -1.0002112914529508e+00 0.0000000000000000e+00  -1.0006562722136745e+00 -9.9268333746768056e-01 0.0000000000000000e+00  3.0676049217715384e-01 2.9967778657964755e-01 0.0000000000000000e+00  2.9974207438428074e-01 3.0552467620241996e-01 0.0000000000000000e+00  -8.2297708187631780e-01 -8.2298716210836553e-01 0.0000000000000000e+00  -8.2509911587542661e-01 -8.2490245633430526e-01 0.0000000000000000e+00  -1.2309626972193072e-01 -1.2239964860641672e-01 0.0000000000000000e+00  -8.1137692685190699e-01 -8.1606057794639097e-01 0.0000000000000000e+00  -9.3093319604712410e-01 -9.3622146303404774e-01 0.0000000000000000e+00  -4.3147333441148139e-01 -4.2708866802658679e-01 0.0000000000000000e+00  -6.4127973157056473e-01 -6.4745704163414475e-01 0.0000000000000000e+00  -9.3763165252505021e-01 -9.3121288894368348e-01 0.0000000000000000e+00  -8.1567440555839377e-01 -8.1112578941698821e-01 0.0000000000000000e+00  -1.8959697079588830e-01 -1.9472106459680699e-01 0.0000000000000000e+00  -1.9453905693574974e-01 -1.8936965903476463e-01 0.0000000000000000e+00  -4.2751111081423215e-01 -4.3139398104999943e-01 0.0000000000000000e+00  -6.4606026563538155e-01 -6.4135016795742028e-01 0.0000000000000000e+00  5.4016894808966556e-02 5.9285591740916688e-02 0.0000000000000000e+00  5.8869440276018314e-02 5.4200834558941313e-02 0.0000000000000000e+00  -9.1462037030136067e-01 -9.1476472370990625e-01 0.0000000000000000e+00  -3.9986604121398300e-01 -4.0008991267259075e-01 0.0000000000000000e+00  -1.5853687380117917e-01 -1.5900651176773078e-01 0.0000000000000000e+00  -4.3935452854782597e-01 -4.3925411594827579e-01 0.0000000000000000e+00  -6.2670573824060616e-01 -6.2666660295493126e-01 0.0000000000000000e+00  -6.7478287236317391e-01 -6.7494630619862395e-01 0.0000000000000000e+00  -4.0783687489587361e-01 -4.0784595153959541e-01 0.0000000000000000e+00  -4.6014269802009333e-01 -4.6029662505996810e-01 0.0000000000000000e+00  -4.0837153401352788e-01 -4.0869142781883316e-01 0.0000000000000000e+00  -5.4151271375543997e-01 -5.4180457615951327e-01 0.0000000000000000e+00  -6.3734198244180529e-01 -6.3704673899976405e-01 0.0000000000000000e+00  -7.2273266417361703e-01 -7.2261769499602768e-01 0.0000000000000000e+00  -9.6392606470906905e-01 -9.6355167730219238e-01 0.0000000000000000e+00  -9.5816950906485410e-01 -9.5866563618135869e-01 0.0000000000000000e+00  -8.7380400408957271e-01 -8.7331894495629869e-01 0.0000000000000000e+00  1.1649698210871383e-01 1.1591188940683261e-01 0.0000000000000000e+00  2.0874897224416100e-01 2.0882676487208601e-01 0.0000000000000000e+00  8.0759455742353006e-02 8.0935670604380117e-02 0.0000000000000000e+00  -8.0073790805110190e-01 -8.0045181105486773e-01 0.0000000000000000e+00  -9.8353245738385398e-01 -9.8352512813755100e-01 0.0000000000000000e+00  -7.8408072883098845e-01 -7.8432163737507898e-01 0.0000000000000000e+00  -2.8801155194711331e-01 -2.8761815185212464e-01 0.0000000000000000e+00  -5.3395793796066815e-01 -5.3399633745197028e-01 0.0000000000000000e+00  -5.7308435622215759e-01 -5.7290768071195819e-01 0.0000000000000000e+00  -6.3510038957886705e-01 -6.3452641929499443e-01 0.0000000000000000e+00  -5.4019666281277345e-01 -5.4006347642957298e-01 0.0000000000000000e+00  -4.3879455652182869e-01 -4.3865717243325275e-01 0.0000000000000000e+00  -5.4046842814608664e-01 -5.4084810775934211e-01 0.0000000000000000e+00  -6.3562713367505563e-01 -6.3453083000655008e-01 0.0000000000000000e+00  -5.1744961796321931e-01 -5.1804299087067873e-01 0.0000000000000000e+00  -3.7161323492462106e-01 -3.7198487319605766e-01 0.0000000000000000e+00  -5.5051399129762722e-02 -5.5207026632936682e-02 0.0000000000000000e+00  -1.9754971927976264e-01 -1.9755877822340565e-01 0.0000000000000000e+00  -1.9770201643772939e-01 -1.9741643026004238e-01 0.0000000000000000e+00  -5.0816929165398639e-01 -5.0793935784355448e-01 0.0000000000000000e+00  -8.0913553866577392e-01 -8.1024332598878857e-01 0.0000000000000000e+00  -7.3582407709642139e-02 -7.3124178145006075e-02 0.0000000000000000e+00  -2.8284401095885786e-01 -2.8273080116358251e-01 0.0000000000000000e+00  -4.3356503992568551e-01 -4.3303490830058922e-01 0.0000000000000000e+00  -2.5702562462053086e-01 -2.5694039717069217e-01 0.0000000000000000e+00  -1.6480213258246024e-01 -1.6417318936073458e-01 0.0000000000000000e+00  -4.3548485980840401e-01 -4.3524414112720144e-01 0.0000000000000000e+00  -4.5684044753735581e-01 -4.5690960335586894e-01 0.0000000000000000e+00  -6.3723668089219054e-01 -6.3774788305016450e-01 0.0000000000000000e+00  -9.2351403546239885e-01 -9.2337436612686818e-01 0.0000000000000000e+00  -9.5696630888210099e-01 -9.5199605091824668e-01 0.0000000000000000e+00  -8.2442183577400163e-01 -8.2396826043088534e-01 0.0000000000000000e+00  -1.2583342036669373e-01 -1.2603571858908852e-01 0.0000000000000000e+00  1.1651218893193525e-01 1.2169095239517946e-01 0.0000000000000000e+00  -6.5000107560516596e-01 -6.5018192492652094e-01 0.0000000000000000e+00  -9.0978469610672386e-01 -9.0660707323705003e-01 0.0000000000000000e+00  -8.8547157685267541e-01 -8.8570937790111914e-01 0.0000000000000000e+00  -6.7480582149275925e-01 -6.7501681093785448e-01 0.0000000000000000e+00  -7.7249281003197146e-01 -7.7303474605464306e-01 0.0000000000000000e+00  -7.4226428154243063e-01 -7.4201873317373845e-01 0.0000000000000000e+00  -6.2827700920277674e-01 -6.2833567687593339e-01 0.0000000000000000e+00  -2.9927654021879108e-01 -2.9905383969880278e-01 0.0000000000000000e+00  -1.8611281572624528e-02 -1.8375782606732588e-02 0.0000000000000000e+00  -3.4148202935119892e-01 -3.4133259101252306e-01 0.0000000000000000e+00  -7.5498913165268777e-01 -7.5485096862100898e-01 0.0000000000000000e+00  -3.0299635194523455e-01 -3.0339993950061367e-01 0.0000000000000000e+00  2.3958914783374180e-01 2.4593562950571293e-01 0.0000000000000000e+00  -5.9571779030743466e-01 -5.9507413443639967e-01 0.0000000000000000e+00  -7.0919368046096287e-01 -7.0892526524355470e-01 0.0000000000000000e+00  3.6647690245636205e-01 3.5861557433973557e-01 0.0000000000000000e+00  -8.7789444006959316e-01 -8.7756014193703369e-01 0.0000000000000000e+00  -8.2973435822848024e-03 -3.4930852656250878e-03 0.0000000000000000e+00  -4.7921117513466116e-02 -4.7536993214940704e-02 0.0000000000000000e+00  -7.5308100721982363e-01 -7.5351942551462736e-01 0.0000000000000000e+00  -8.6790851191316865e-01 -8.6753674709899775e-01 0.0000000000000000e+00  -2.5589592017815771e-01 -2.5589224662084536e-01 0.0000000000000000e+00  -5.9428628001005079e-01 -5.9441399353002278e-01 0.0000000000000000e+00  -6.8896707361044796e-01 -6.8911852347345648e-01 0.0000000000000000e+00  -7.1959269561029648e-01 -7.1979493860958976e-01 0.0000000000000000e+00  -3.4226138592634403e-01 -3.4220533847728968e-01 0.0000000000000000e+00  -3.7619422181287049e-01 -3.7567908484189849e-01 0.0000000000000000e+00  -9.2981713915446118e-01 -9.2966128804359860e-01 0.0000000000000000e+00  -4.4966963453667447e-01 -4.4968341291584180e-01 0.0000000000000000e+00  -7.5937918730220366e-01 -7.5883163920710739e-01 0.0000000000000000e+00  -9.0559797574148260e-01 -9.0538255777425203e-01 0.0000000000000000e+00  -8.0948478285335368e-01 -8.0942517177593509e-01 0.0000000000000000e+00  -9.0649048696031709e-01 -9.1194132509136994e-01 0.0000000000000000e+00  -8.6181205370683078e-01 -8.6144097304088252e-01 0.0000000000000000e+00  8.5329833056364546e-02 8.5403597324126529e-02 0.0000000000000000e+00  -7.7610278721320161e-03 -8.1375382308435489e-03 0.0000000000000000e+00  3.5889338577254859e-01 3.6708823434159810e-01 0.0000000000000000e+00  3.1697987022253890e-02 3.1527421017444324e-02 0.0000000000000000e+00  -6.5439375054971860e-01 -6.5517932014270297e-01 0.0000000000000000e+00  -4.5988500435296786e-01 -4.5987750798091498e-01 0.0000000000000000e+00  -5.9631917738503293e-01 -5.9670764380941665e-01 0.0000000000000000e+00  -9.6192476025932339e-01 -9.6220165189925821e-01 0.0000000000000000e+00  -9.5185534538389560e-01 -9.5685219449486458e-01 0.0000000000000000e+00  1.7827544993394945e-01 1.7845365809718644e-01 0.0000000000000000e+00  -7.0127159600601896e-01 -7.0113965657890498e-01 0.0000000000000000e+00  -5.2619535731758571e-01 -5.2632000866944462e-01 0.0000000000000000e+00  -4.0946314055613753e-01 -4.0953486170849335e-01 0.0000000000000000e+00  -6.1621020587468167e-01 -6.1635280778630774e-01 0.0000000000000000e+00  -7.7319054837375178e-01 -7.7775603157132278e-01 0.0000000000000000e+00  -3.6325250142365351e-01 -3.6336151558876273e-01 0.0000000000000000e+00  2.0877084451804562e-01 2.0954473793483075e-01 0.0000000000000000e+00  -1.8966836706085322e-01 -1.8963612993998263e-01 0.0000000000000000e+00  -2.8614777563330340e-01 -2.8610521061491123e-01 0.0000000000000000e+00  -5.9213258637203514e-01 -5.9632777829013595e-01 0.0000000000000000e+00  -4.8378467134443598e-01 -4.8695567024704650e-01 0.0000000000000000e+00  -4.8690973615475719e-01 -4.8312487762045120e-01 0.0000000000000000e+00  -5.9657871919685657e-01 -5.9206163369298315e-01 0.0000000000000000e+00  -8.4665358239896205e-01 -8.4642036023599199e-01 0.0000000000000000e+00  -8.5042133917441221e-01 -8.5037778847989409e-01 0.0000000000000000e+00  -7.8461185258102562e-01 -7.8466313713167979e-01 0.0000000000000000e+00  -9.4757987069156835e-01 -9.4718718568947580e-01 0.0000000000000000e+00  -9.1310300360558849e-01 -9.1322911610789426e-01 0.0000000000000000e+00  -1.4473081668923105e-01 -1.4534251120307529e-01 0.0000000000000000e+00  -9.9841680498671415e-01 -1.0089367557917346e+00 0.0000000000000000e+00  -1.0071173768809243e+00 -9.9886981163150068e-01 0.0000000000000000e+00  3.3603250686211700e-02 3.2940877059170898e-02 0.0000000000000000e+00  -8.2704388226337189e-01 -8.2740391857600293e-01 0.0000000000000000e+00  -8.3607646092580556e-01 -8.3593298722098686e-01 0.0000000000000000e+00  -7.9921545799696481e-01 -7.9858899973240738e-01 0.0000000000000000e+00  -6.9021495320881532e-01 -6.8988734665910223e-01 0.0000000000000000e+00  -3.5698378300624645e-01 -3.5737333574705582e-01 0.0000000000000000e+00  -4.7101220310777081e-01 -4.7053805965662815e-01 0.0000000000000000e+00  -1.3309549741527019e-01 -1.3250010781745464e-01 0.0000000000000000e+00  -1.3296969296183941e-01 -1.3297608362797697e-01 0.0000000000000000e+00  -2.5550979542833352e-01 -2.5028574949903015e-01 0.0000000000000000e+00  -3.7416873234486109e-01 -3.6961347575588294e-01 0.0000000000000000e+00  -3.5858342978840746e-03 -8.5102695141962351e-03 0.0000000000000000e+00  -1.3281899478410270e-01 -1.2808640150976755e-01 0.0000000000000000e+00  -2.5050145220119779e-01 -2.5552942965207281e-01 0.0000000000000000e+00  -1.2809345519717064e-01 -1.3299161528157974e-01 0.0000000000000000e+00  -6.8802837652211501e-01 -6.9262465369031812e-01 0.0000000000000000e+00  -3.6976414255613438e-01 -3.7413706587399331e-01 0.0000000000000000e+00  -8.4638085113940420e-01 -8.5168305059538296e-01 0.0000000000000000e+00  -9.8289014960496646e-01 -9.8775159813125679e-01 0.0000000000000000e+00  -9.8891479216836142e-01 -9.8302709132705401e-01 0.0000000000000000e+00  -8.5427631397575210e-01 -8.4651746651296578e-01 0.0000000000000000e+00  -7.7714673460515182e-01 -7.7341779387887843e-01 0.0000000000000000e+00  -6.9393480015571885e-01 -6.8821720291849775e-01 0.0000000000000000e+00  1.2142826772268484e-01 1.1649076604248666e-01 0.0000000000000000e+00  2.4612235006558231e-01 2.3956937389729849e-01 0.0000000000000000e+00  -1.0688262554064376e-01 -1.0734842385920443e-01 0.0000000000000000e+00  -7.7481441891579206e-01 -7.7365488901204471e-01 0.0000000000000000e+00  2.9689759341056432e-01 2.9596122380851314e-01 0.0000000000000000e+00  -3.2926162692694183e-01 -3.2903289261078711e-01 0.0000000000000000e+00  -5.9161248926547438e-01 -5.9114103154045483e-01 0.0000000000000000e+00  -6.8302495030447985e-01 -6.8260501546401886e-01 0.0000000000000000e+00  -5.9182981611396634e-01 -5.9179411466760323e-01 0.0000000000000000e+00  -3.9450716330364161e-01 -3.9396078700766168e-01 0.0000000000000000e+00  -9.7894665924741719e-01 -9.7959209904597933e-01 0.0000000000000000e+00  -9.5487640793883233e-01 -9.5406253175756084e-01 0.0000000000000000e+00  -2.0741391569813319e-01 -2.0717375409139194e-01 0.0000000000000000e+00  -2.1341444465771484e-01 -2.1330251704388703e-01 0.0000000000000000e+00  -4.5472530903000685e-01 -4.5484584307900455e-01 0.0000000000000000e+00  -2.2287336711541944e-01 -2.2295606415297053e-01 0.0000000000000000e+00  -9.4789449492196587e-02 -9.4573824986768654e-02 0.0000000000000000e+00  -8.9711414845479465e-01 -8.9780970780206482e-01 0.0000000000000000e+00  -5.1822444717842542e-01 -5.1796908907190908e-01 0.0000000000000000e+00  -4.5380207501122688e-01 -4.5385083206575122e-01 0.0000000000000000e+00  -6.8229960806403067e-01 -6.8310772407477360e-01 0.0000000000000000e+00  1.0552694038684175e-01 1.0524255106195046e-01 0.0000000000000000e+00  -4.9902058330300086e-01 -4.9909543015517066e-01 0.0000000000000000e+00  -3.8226654741420230e-01 -3.8241044184761847e-01 0.0000000000000000e+00  -4.6819482464865592e-01 -4.6834068798395745e-01 0.0000000000000000e+00  -3.7412579042946403e-01 -3.7417401077468782e-01 0.0000000000000000e+00  -5.1924923729905359e-01 -5.1917747096831657e-01 0.0000000000000000e+00  -4.7669665143916060e-02 -4.7463636285665016e-02 0.0000000000000000e+00  -1.0863877897171953e-01 -1.0785238771284375e-01 0.0000000000000000e+00  -7.1656106719368773e-01 -7.1590608551949442e-01 0.0000000000000000e+00  -8.8492905221281593e-01 -8.8545666676783485e-01 0.0000000000000000e+00  -4.7227775115271220e-01 -4.7193461090648531e-01 0.0000000000000000e+00  -6.0382638817873913e-01 -6.0428155319909094e-01 0.0000000000000000e+00  1.4485550675685213e-01 1.4525123043673624e-01 0.0000000000000000e+00  2.5221694643561454e-01 2.5367475196376399e-01 0.0000000000000000e+00  -3.8065708547522803e-01 -3.8074359612859904e-01 0.0000000000000000e+00  -1.9418052216394463e-01 -1.9395097008134288e-01 0.0000000000000000e+00  -2.4017696497448693e-01 -2.4063779407239744e-01 0.0000000000000000e+00  -8.9391866988179014e-01 -8.9453573842637313e-01 0.0000000000000000e+00  -6.5331105344186691e-01 -6.5313330049185470e-01 0.0000000000000000e+00  -5.9900544307680914e-01 -5.9914710734397814e-01 0.0000000000000000e+00  -8.5721620396248088e-02 -8.5678001920600100e-02 0.0000000000000000e+00  -2.6926454193375066e-01 -2.6967605378205217e-01 0.0000000000000000e+00  -2.5587028876956552e-01 -2.5570480112129601e-01 0.0000000000000000e+00  -7.0789545270116905e-01 -7.0750378399442115e-01 0.0000000000000000e+00  -4.7271807702634189e-01 -4.7238575125727561e-01 0.0000000000000000e+00  -6.0496102392727591e-01 -6.0508925179793049e-01 0.0000000000000000e+00  -5.6501980015203246e-01 -5.6501828807065790e-01 0.0000000000000000e+00  -1.8250224927664160e-01 -1.8265904363118163e-01 0.0000000000000000e+00  -6.5357181983829937e-01 -6.5365522901007478e-01 0.0000000000000000e+00  -2.6660667913489250e-01 -2.6713878651111767e-01 0.0000000000000000e+00  1.5182037248817815e-01 1.5266223881014829e-01 0.0000000000000000e+00  1.0305822283571249e-01 1.0402461065171976e-01 0.0000000000000000e+00  -5.1075550097883249e-01 -5.1064504067015248e-01 0.0000000000000000e+00  -8.6129678176604529e-01 -8.6138822041656660e-01 0.0000000000000000e+00  -6.3562545197412568e-01 -6.3584209458404561e-01 0.0000000000000000e+00  -5.0991874672893511e-01 -5.1011099757489631e-01 0.0000000000000000e+00  -9.4619757194833920e-01 -9.4560770271791128e-01 0.0000000000000000e+00  -9.8258648012285077e-01 -9.8051686569062402e-01 0.0000000000000000e+00  -5.2954664270849527e-01 -5.3001830871560041e-01 0.0000000000000000e+00  -3.5888267774345578e-01 -3.5868465136466188e-01 0.0000000000000000e+00  -4.5495626132448946e-01 -4.5519588137333483e-01 0.0000000000000000e+00  -4.0917418849999904e-01 -4.0881453118424710e-01 0.0000000000000000e+00  -9.1823480589614104e-01 -9.1901219935207679e-01 0.0000000000000000e+00  2.3507896421748400e-02 2.3266286463681982e-02 0.0000000000000000e+00  -7.6375610242971259e-01 -7.6349733551938437e-01 0.0000000000000000e+00  -8.4223212411938975e-01 -8.4385781000031046e-01 0.0000000000000000e+00  -7.9897619264899511e-01 -7.9995826564453543e-01 0.0000000000000000e+00  -7.8277505753253251e-01 -7.8248864530424345e-01 0.0000000000000000e+00  -7.5097870764078878e-01 -7.5093863873948974e-01 0.0000000000000000e+00  -5.0486078494080711e-01 -5.0444441658179429e-01 0.0000000000000000e+00  -4.7072933314327747e-01 -4.7033111573271258e-01 0.0000000000000000e+00  -3.5328622676476779e-01 -3.5334423961841388e-01 0.0000000000000000e+00  -2.3506840778029781e-01 -2.3489132912660346e-01 0.0000000000000000e+00  -9.6714453243540754e-01 -9.6875688464202780e-01 0.0000000000000000e+00  -9.3628809291288895e-01 -9.3645464191478756e-01 0.0000000000000000e+00  -9.4926721482181464e-01 -9.4884145397533382e-01 0.0000000000000000e+00  -3.0033087296574779e-01 -3.0085345793148116e-01 0.0000000000000000e+00  -2.7504545157570570e-01 -2.7493983461721250e-01 0.0000000000000000e+00