<?xml version="1.0"?>
<VTKFile type="UnstructuredGrid"  version="0.1"  >
<UnstructuredGrid>
<Piece  NumberOfPoints="1385" NumberOfCells="2640">
<Points>
<DataArray  type="Float64"  NumberOfComponents="3"  format="ascii">0 0 0  1 0 0  1 1 0  0 1 0  0.5 0 0  1 0.5 0  0.5 1 0  0 0.5 0  0.5 0.5 0  0 0.25 0  0.25 0 0  0.25 1 0  0 0.75 0  1 0.25 0  0.75 0 0  1 0.75 0  0.75 1 0  0.7083333333333333 0.2916666666666667 0  0.2916666666666666 0.7083333333333334 0  0.375 0.25 0  0.75 0.625 0  0.2569444444444444 0.4652777777777778 0  0.5366379310344828 0.7535919540229885 0  0.1875 0.1875 0  0.8125 0.8125 0  0.869047619047619 0.375 0  0.1450441919191919 0.6052714646464646 0  0.375 0.8690476190476191 0  0.5526960784313725 0.1825980392156862 0  0.8385416666666666 0.1614583333333334 0  0.1614583333333333 0.8385416666666667 0  0.6736111111111112 0.4652777777777778 0  0.1367521367521368 0.3477564102564102 0  0.6570970491253563 0.8648656830417855 0  0.5102479397556124 0.3386260301221938 0  0.3654513888888889 0.5737847222222222 0  0.6929750044954185 0.1362784921584263 0  0.388576102743835 0.411911725237599 0  0.6091269841269842 0.5942460317460317 0  0.875 0.6875 0  0.427278890279516 0.119889445139758 0  0.8544456845238095 0.5213913690476191 0  0.125 0 0  0 0.125 0  1 0.875 0  0.875 1 0  0.1280008648150532 0.4769292340226777 0  0.2695382451711197 0.3321750950221553 0  0.7031567235715964 0.7447810921428012 0  0.625 0 0  0.375 0 0  0.125 1 0  0.875 0 0  0 0.375 0  0 0.625 0  1 0.375 0  0.375 1 0  1 0.125 0  0 0.875 0  0.625 1 0  1 0.625 0  0.2979288363930608 0.1201429454643536 0  0.410919540229885 0.7484605911330049 0  0.5325041980395562 0.878905151526474 0  0.4831670727569156 0.6331060043826487 0  0.1735997378973042 0.7204747378973043 0  0.2534919507575758 0.5772372159090909 0  0.2633928571428572 0.8876488095238095 0  0.8199404761904761 0.2730654761904762 0  0.75830270586982 0.3919383189517417 0  0.5750282248382511 0.4237522353023667 0  0.6008360210023379 0.2794828358598495 0  0.08163442644334186 0.6821295860397322 0  0.08333333333333333 0.1875 0  0.2028380815996574 0.08844602719988583 0  0.2766521142611967 0.2325436572164097 0  0.90625 0.78125 0  0.890625 0.890625 0  0.7545696325008384 0.8973565441669461 0  0.5625 0.08086590340834317 0  0.09077380952380953 0.09077380952380952 0  0.4610923478694773 0.209034015149656 0  0.7542527598351648 0.5248380520595106 0  0.6459235536037465 0.3619913988405765 0  0.7560381768882634 0.20506142233852 0  0.07073252688172042 0.8125 0  0.0924753097241701 0.9078102849914793 0  0.9292674731182795 0.1875 0  0.9075246902758297 0.09218971500852073 0  0.8125 0.07073252688172045 0  0.2400955776842301 0.7869705776842302 0  0.9121050213379069 0.2781978201831695 0  0.7916878157143976 0.7239689078571988 0  0.9345238095238094 0.4375 0  0.4375 0.9345238095238095 0  0.3725616989755203 0.6651895248862173 0  0.06536271996350887 0.5625 0  0.9348362560379583 0.5625 0  0.456646798987055 0.8277247094351965 0  0.1875 0.9355758238725954 0  0.6169761231634859 0.6939779188977889 0  0.6226854751147515 0.7827911461419014 0  0.3305695598137626 0.7901697871282585 0  0.5865305325818898 0.5101085479043448 0  0.6622701297028378 0.2177663989757395 0  0.1354166666666667 0.2591702279202279 0  0 0.3125 0  0.2094429575680048 0.3936361846162499 0  0.836666296419157 0.607917407161686 0  0.6875 1 0  0.214261555450504 0.6492551722020035 0  0 0.4375 0  0.07731537126068377 0.40625 0  0.3427725432967068 0.4879566233699599 0  0.3550792513951871 0.3331953632609953 0  0.4462473953896857 0.2887834789342508 0  0.4747801464819794 0.417386052030127 0  0.8229836475148948 0.4443292349237342 0  0.7322605135514757 0.8199240278289671 0  0.6756431877205955 0.5468989748126787 0  0.1968419507215863 0.5194573482612496 0  0.3285590277777778 0.9345238095238095 0  0.8125 1 0  0.4198917601920009 0.5134893045331258 0  0.5232405503206691 0.2595791787880157 0  1 0.9375 0  0.1987510870015086 0.3025185951894431 0  0.5625 1 0  0.6005390654136388 0.9228110509230952 0  0.6411254848194414 0.07704872765442942 0  0.3357233162523242 0.1855113224530532 0  0.6730653396610877 0.6393887462324165 0  0.310966987234063 0.6240019765311626 0  0.7368737836204349 0.07457755202327881 0  0.6192316414418171 0.1485238406378594 0  0.5432429670607106 0.678552703844006 0  0.4754371679695679 0.7103946803120881 0  0.07501324890749672 0.3043839897335739 0  0.5358146975860403 0.5688321463205916 0  0.3115271739500156 0.3982137365971444 0  0.3625191397122174 0.0767854603650549 0  0.5024029442563831 0.1264128223758444 0  0.4375 0 0  0.4699946908887376 0.06379961173775725 0  0.9375 0.71875 0  0.9272105898044465 0.635671179608893 0  0.9375 1 0  0.6690971819568612 0.9331530898202766 0  0.1073454944778885 0.7499206387638554 0  0.8699082999280406 0.2232403652524313 0  0.5773118091863964 0.3548027349159383 0  0.1354166666666667 0.1428571428571428 0  0.3125 0 0  0.8241684193077341 0.9257452995055244 0  0.4352314948354036 0.3586940847489378 0  0.4351301473778832 0.5819726043539077 0  0.8073232928518163 0.3419398170341962 0  0.7775949246947366 0.1298519409204575 0  0.6875 0 0  0.7413513991851041 0.457933324954483 0  0.939453125 0.841796875 0  0.5630355154606987 0.8171875156478349 0  0.9345238095238095 0.3461466592368577 0  0.9375 0 0  1 0.0625 0  0.0625 1 0  0 0.9375 0  0.06552178593177167 0.4969053669623468 0  0.1424866619031703 0.4130277709291224 0  0.1275287182444726 0.5422946908002588 0  0.2637686595586339 0.06413888464529549 0  0.2524263535491086 0.1697437503243817 0  0.7367218397988525 0.6888573970660841 0  0.0625 0 0  0 0.0625 0  0.8463594539285995 0.7578283617857982 0  0.3128751192101563 0.2851997374369947 0  0.4015281788351144 0.1806421385113692 0  0.1910251795116588 0.4553332197174453 0  0.287797471442006 0.5222621440543902 0  0.3962628745986055 0.8097380085535307 0  0.3505895299554843 0.7304878890838692 0  0.5019151500495276 0.9356042615328103 0  0.9374389419410134 0.4999931039076005 0  0.3125 1 0  0.1875 1 0  1 0.5625 0  0.4375 1 0  1 0.3125 0  1 0.4375 0  0.8125 0 0  1 0.1875 0  0.5625 0 0  0.1875 0 0  0 0.1875 0  0 0.5625 0  0 0.6875 0  0 0.8125 0  1 0.6875 0  1 0.8125 0  0.8021696218581627 0.6612893947866073 0  0.06154922295426143 0.6239401126946708 0  0.9359375 0.9359375 0  0.4666158024849896 0.7691515918155014 0  0.2318201265217025 0.7064974250277525 0  0.1565954253579966 0.6635489312486841 0  0.1598132503680848 0.7787147500325552 0  0.3146529991605639 0.8510876378205265 0  0.1461873209418733 0.05982804528877814 0  0.06109554988524315 0.2446551776247686 0  0.8054950308560754 0.5564226538848541 0  0.470541749491976 0.8853316336952531 0  0.6948472567465137 0.4042308563372457 0  0.8802828472348889 0.4658893256343853 0  0.6788075634946739 0.7974194205806069 0  0.2155048659603867 0.2428201584940968 0  0.8131223143423806 0.2132171049028394 0  0.4330798005432235 0.6671274900735726 0  0.6015279126162613 0.2187368078743274 0  0.8061636571464289 0.8703766630361714 0  0.7008230445061776 0.3478568388444072 0  0.8638466246958771 0.3147095987735538 0  0.204801534004265 0.8789209409594009 0  0.2449006736431132 0.9424182882803838 0  0.7611268409371427 0.2643056884799992 0  0.7552800864046191 0.7678006649959446 0  0.5983639638906616 0.864113435029236 0  0.1956559506814437 0.577281203577426 0  0.3527670268164207 0.1320469097565204 0  0.7530364577483248 0.3262386077083089 0  0.4535919187979363 0.4690107087451527 0  0.8824869791666666 0.8336588541666666 0  0.8814453125 0.9451171875 0  0.5582987942628019 0.622421666543858 0  0.6817532446064828 0.6939001801354731 0  0.3830295138888889 0.9450968952922078 0  0.4140603937012541 0.05211333372716105 0  0.5535864501303013 0.3060591985391672 0  0.6560130086346878 0.2729726562211558 0  0.890203140221684 0.5948314305427268 0  0.7043857725999024 0.593980890020804 0  0.5105843922695152 0.8016828014338627 0  0.05365910753708378 0.7315110031682004 0  0.616904573672261 0.4621186633436136 0  0.5338511646455415 0.387875898899613 0  0.5231769258947843 0.4477682463140762 0  0.650302973237622 0.7370722302085519 0  0.3927483139621257 0.4662414504529014 0  0.8034595960585199 0.4972538342758211 0  0.7738337841682438 0.9496376207663251 0  0.7193737507158268 0.954685447650112 0  0.482525916480686 0.5528257169991676 0  0.2533501157346781 0.2809495420003238 0  0.3118487924482243 0.5702930126570319 0  0.6257598847669529 0.4104163315430518 0  0.1354166666666667 0.1955605158730158 0  0.04166666666666666 0.15625 0  0.3956448985530264 0.6174149462065157 0  0.8102897701818546 0.3938784238208349 0  0.2641154190013625 0.8344469561943118 0  0.642852220770013 0.5068794586563659 0  0.05271458179508221 0.355846947336007 0  0.7021551360070266 0.8921457280225779 0  0.5692125776683765 0.1328512638850284 0  0.5206162811937602 0.04865158770992991 0  0.6001838442201555 0.04540556991297563 0  0.2597716608242787 0.4118346398477178 0  0.4040584599473195 0.3179589136784675 0  0.1480337679295207 0.8941560631483065 0  0.1344356707112281 0.9466251177415842 0  0.7114696411829317 0.4983917389078826 0  0.7585704698442475 0.5751926345944629 0  0.2189131956390871 0.04022068508159698 0  0.2476935455192043 0.1123642267635843 0  0.185995005654517 0.1365524537205238 0  0.6223414373308711 0.643380839165121 0  0.5732602596637543 0.7190051747306219 0  0.268358222364537 0.6586246524467934 0  0.3265879848129173 0.2369791782191225 0  0.1267095595787346 0.7034787238999181 0  0.1115202922226038 0.6421997933884982 0  0.3128688392940203 0.07260997451790079 0  0.550724900485678 0.9253360991633187 0  0.7142608810459105 0.2384904702214873 0  0.7045869185243887 0.1871826897887429 0  0.890625 0.734375 0  0.953125 0.765625 0  0.2111812642821677 0.8286209446459138 0  0.9590293078204457 0.09375 0  0.953431269039847 0.1435719386408004 0  0.04097069217955424 0.90625 0  0.04656873096015299 0.8564280613591996 0  0.1078743037981226 0.8541621766048062 0  0.8921256962018773 0.1458378233951939 0  0.8521576979194619 0.1084496634207678 0  0.8655663982740958 0.05464346096571447 0  0.04005659640905543 0.09375 0  0.1001448316533417 0.04246776244228261 
[...]
<PointData  Vectors="f_8394-3"> 
<DataArray  type="Float64"  Name="f_8394-3"  NumberOfComponents="3" format="ascii">-1.0024617857498701e+00 -1.0023937651062054e+00 0.0000000000000000e+00  -5.4048789776306783e-01 -5.4077119158999620e-01 0.0000000000000000e+00  4.1665843350414111e-01 4.1665843350388049e-01 0.0000000000000000e+00  -5.4059076842875231e-01 -5.4059453712380512e-01 0.0000000000000000e+00  -8.7810062880275763e-01 -8.8286501750934843e-01 0.0000000000000000e+00  -6.6025465050868565e-02 -7.0719819674164325e-02 0.0000000000000000e+00  -7.0631223068453250e-02 -6.6733112387359239e-02 0.0000000000000000e+00  -8.8214471559596608e-01 -8.7805256062704251e-01 0.0000000000000000e+00  -5.4070384075435485e-01 -5.4079269118952800e-01 0.0000000000000000e+00  -9.7375494337499335e-01 -9.6951336660966492e-01 0.0000000000000000e+00  -9.6953580091458957e-01 -9.7441977124236068e-01 0.0000000000000000e+00  -3.1551151702487434e-01 -3.1083353480314080e-01 0.0000000000000000e+00  -7.3627916043614128e-01 -7.3206252558846785e-01 0.0000000000000000e+00  -3.1117094880731450e-01 -3.1549556097251152e-01 0.0000000000000000e+00  -7.3224363827811711e-01 -7.3564111079676264e-01 0.0000000000000000e+00  1.8358151549963383e-01 1.7833000274582392e-01 0.0000000000000000e+00  1.7838360090180524e-01 1.8335281604924436e-01 0.0000000000000000e+00  -5.4068211639559993e-01 -5.4099893246845199e-01 0.0000000000000000e+00  -5.4061997513208715e-01 -5.4055082498743534e-01 0.0000000000000000e+00  -8.1144959536475625e-01 -8.1154085119413089e-01 0.0000000000000000e+00  -1.9463250309035757e-01 -1.9496530464672743e-01 0.0000000000000000e+00  -7.5106073177412225e-01 -7.5086041439304840e-01 0.0000000000000000e+00  -2.7699135949532389e-01 -2.7681040843634197e-01 0.0000000000000000e+00  -9.3106373526065345e-01 -9.3132114771880647e-01 0.0000000000000000e+00  5.3762656128712526e-02 5.4465801529147401e-02 0.0000000000000000e+00  -3.2114913582227411e-01 -3.2144623172222797e-01 0.0000000000000000e+00  -7.3211640710206449e-01 -7.3199583748528907e-01 0.0000000000000000e+00  -3.2138597067800245e-01 -3.2094591582724474e-01 0.0000000000000000e+00  -7.4218933273706222e-01 -7.4226972764119670e-01 0.0000000000000000e+00  -5.4081770748237501e-01 -5.4080887484558848e-01 0.0000000000000000e+00  -5.4117331987168216e-01 -5.4055117536564168e-01 0.0000000000000000e+00  -4.1877360396177654e-01 -4.1896391578474346e-01 0.0000000000000000e+00  -8.8556710795037841e-01 -8.8538208617422554e-01 0.0000000000000000e+00  -4.8803805203854377e-02 -4.8969834756633267e-02 0.0000000000000000e+00  -6.6112233388604114e-01 -6.6133675943170422e-01 0.0000000000000000e+00  -5.9064635849713876e-01 -5.9094246098745584e-01 0.0000000000000000e+00  -6.7592091164728696e-01 -6.7605419915750165e-01 0.0000000000000000e+00  -6.9683845694738222e-01 -6.9695431109231998e-01 0.0000000000000000e+00  -3.5942814298350856e-01 -3.5954713144123651e-01 0.0000000000000000e+00  -8.2199624350558428e-03 -8.3476760272774408e-03 0.0000000000000000e+00  -8.5470379505770933e-01 -8.5454609931001679e-01 0.0000000000000000e+00  -1.9369584591749139e-01 -1.9386025575162055e-01 0.0000000000000000e+00  -9.9278864565931202e-01 -9.9941632489533594e-01 0.0000000000000000e+00  -9.9976014302596483e-01 -9.9286413461245882e-01 0.0000000000000000e+00  3.0603717013136950e-01 2.9970180895926607e-01 0.0000000000000000e+00  2.9977066935064423e-01 3.0509693538216903e-01 0.0000000000000000e+00  -8.2315064473594413e-01 -8.2307196767532576e-01 0.0000000000000000e+00  -8.2510936953637604e-01 -8.2499011200365047e-01 0.0000000000000000e+00  -1.2303086688930717e-01 -1.2242715251050246e-01 0.0000000000000000e+00  -8.1148504256440879e-01 -8.1581773199595709e-01 0.0000000000000000e+00  -9.3103226610967593e-01 -9.3583063589570381e-01 0.0000000000000000e+00  -4.3150420559654323e-01 -4.2757668439310287e-01 0.0000000000000000e+00  -6.4136096259557474e-01 -6.4677828754720657e-01 0.0000000000000000e+00  -9.3690595177372848e-01 -9.3124373444257735e-01 0.0000000000000000e+00  -8.1555658599058001e-01 -8.1132182088432969e-01 0.0000000000000000e+00  -1.9012972367376352e-01 -1.9473272232146599e-01 0.0000000000000000e+00  -1.9458257501513326e-01 -1.8996023936827749e-01 0.0000000000000000e+00  -4.2795058910446282e-01 -4.3143558190567299e-01 0.0000000000000000e+00  -6.4572663946346676e-01 -6.4139856295869213e-01 0.0000000000000000e+00  5.4071239274463972e-02 5.8810801122328185e-02 0.0000000000000000e+00  5.8424627028983392e-02 5.4206255770008531e-02 0.0000000000000000e+00  -9.1466405382619098e-01 -9.1481055271864575e-01 0.0000000000000000e+00  -3.9998485460082384e-01 -4.0009792213934076e-01 0.0000000000000000e+00  -1.5860894301717529e-01 -1.5897656186870807e-01 0.0000000000000000e+00  -4.3941950701805033e-01 -4.3934096923336396e-01 0.0000000000000000e+00  -6.2677222478628980e-01 -6.2666443496802893e-01 0.0000000000000000e+00  -6.7485242033264581e-01 -6.7496069858898433e-01 0.0000000000000000e+00  -4.0782761124304268e-01 -4.0789234033007038e-01 0.0000000000000000e+00  -4.6020144311687283e-01 -4.6034241561622458e-01 0.0000000000000000e+00  -4.0843251688142002e-01 -4.0872520493590375e-01 0.0000000000000000e+00  -5.4163420291500730e-01 -5.4181220401347208e-01 0.0000000000000000e+00  -6.3747345919816123e-01 -6.3717356915029899e-01 0.0000000000000000e+00  -7.2282983955686086e-01 -7.2274004204029763e-01 0.0000000000000000e+00  -9.6413816009849240e-01 -9.6371279931722720e-01 0.0000000000000000e+00  -9.5830010761247864e-01 -9.5875384186956192e-01 0.0000000000000000e+00  -8.7385975393964055e-01 -8.7351447308949270e-01 0.0000000000000000e+00  1.1654933395277325e-01 1.1595927889401469e-01 0.0000000000000000e+00  2.0877430265270414e-01 2.0884681677633313e-01 0.0000000000000000e+00  8.0827699431491110e-02 8.0959427912381865e-02 0.0000000000000000e+00  -8.0081225656030353e-01 -8.0053293727285912e-01 0.0000000000000000e+00  -9.8360046179290139e-01 -9.8366399342564703e-01 0.0000000000000000e+00  -7.8422252539256754e-01 -7.8443155324060654e-01 0.0000000000000000e+00  -2.8800794816997011e-01 -2.8762948086942031e-01 0.0000000000000000e+00  -5.3403816599512799e-01 -5.3404819777685553e-01 0.0000000000000000e+00  -5.7308315313069158e-01 -5.7296550494379161e-01 0.0000000000000000e+00  -6.3520012996893982e-01 -6.3476032344218003e-01 0.0000000000000000e+00  -5.4026494465811403e-01 -5.4014769147807629e-01 0.0000000000000000e+00  -4.3877200553306306e-01 -4.3875324402714183e-01 0.0000000000000000e+00  -5.4052121236027550e-01 -5.4087185479353184e-01 0.0000000000000000e+00  -6.3563389584001062e-01 -6.3475209693493706e-01 0.0000000000000000e+00  -5.1755915740828562e-01 -5.1806406859531418e-01 0.0000000000000000e+00  -3.7163288619034207e-01 -3.7193667130783103e-01 0.0000000000000000e+00  -5.5042159989531159e-02 -5.5226556987083252e-02 0.0000000000000000e+00  -1.9748829533507034e-01 -1.9759220323778032e-01 0.0000000000000000e+00  -1.9767282541286527e-01 -1.9738797028522484e-01 0.0000000000000000e+00  -5.0830283318133462e-01 -5.0812279904146718e-01 0.0000000000000000e+00  -8.0929080275643817e-01 -8.1024100490876116e-01 0.0000000000000000e+00  -7.3477743705859383e-02 -7.3180704428716520e-02 0.0000000000000000e+00  -2.8280626227341049e-01 -2.8281037838303841e-01 0.0000000000000000e+00  -4.3355628231610088e-01 -4.3296442895311010e-01 0.0000000000000000e+00  -2.5706428308638984e-01 -2.5699375050184847e-01 0.0000000000000000e+00  -1.6480928789515281e-01 -1.6430063428658082e-01 0.0000000000000000e+00  -4.3548347471006082e-01 -4.3532072697644630e-01 0.0000000000000000e+00  -4.5692488557978961e-01 -4.5696789520702813e-01 0.0000000000000000e+00  -6.3737859402488628e-01 -6.3776854850575204e-01 0.0000000000000000e+00  -9.2365041681480986e-01 -9.2353034819565027e-01 0.0000000000000000e+00  -9.5654040224492087e-01 -9.5209278673379527e-01 0.0000000000000000e+00  -8.2446788046153885e-01 -8.2412012256299316e-01 0.0000000000000000e+00  -1.2585254665446632e-01 -1.2605215746700341e-01 0.0000000000000000e+00  1.1651928438923503e-01 1.2123844011593361e-01 0.0000000000000000e+00  -6.5009425418324129e-01 -6.5023770509819079e-01 0.0000000000000000e+00  -9.0978196222578744e-01 -9.0662781723233210e-01 0.0000000000000000e+00  -8.8565769448223186e-01 -8.8579981988636414e-01 0.0000000000000000e+00  -6.7486858504053693e-01 -6.7508654598006201e-01 0.0000000000000000e+00  -7.7253958991998783e-01 -7.7301874532760850e-01 0.0000000000000000e+00  -7.4234406437034783e-01 -7.4218193706013591e-01 0.0000000000000000e+00  -6.2833172083625177e-01 -6.2835302436995744e-01 0.0000000000000000e+00  -2.9923096136486577e-01 -2.9909213086210995e-01 0.0000000000000000e+00  -1.8603756224357101e-02 -1.8417517016744864e-02 0.0000000000000000e+00  -3.4152283460327565e-01 -3.4137209986816219e-01 0.0000000000000000e+00  -7.5498776888833352e-01 -7.5487759168188995e-01 0.0000000000000000e+00  -3.0306920452413821e-01 -3.0329467976991575e-01 0.0000000000000000e+00  2.3958854363055895e-01 2.4524039486848223e-01 0.0000000000000000e+00  -5.9570983770117503e-01 -5.9516722236276043e-01 0.0000000000000000e+00  -7.0929061890965805e-01 -7.0910662736255858e-01 0.0000000000000000e+00  3.6556296364803803e-01 3.5867951899700723e-01 0.0000000000000000e+00  -8.7790122181410479e-01 -8.7767304550573000e-01 0.0000000000000000e+00  -8.3018618414830124e-03 -3.9375190331945621e-03 0.0000000000000000e+00  -4.7863834232687509e-02 -4.7485565949507674e-02 0.0000000000000000e+00  -7.5322736265878165e-01 -7.5366628827348403e-01 0.0000000000000000e+00  -8.6788602593405428e-01 -8.6765695509247642e-01 0.0000000000000000e+00  -2.5588049199228385e-01 -2.5590794372649756e-01 0.0000000000000000e+00  -5.9441302182204925e-01 -5.9444980911027590e-01 0.0000000000000000e+00  -6.8898391914842638e-01 -6.8918779211578696e-01 0.0000000000000000e+00  -7.1978276236812544e-01 -7.1984012122698215e-01 0.0000000000000000e+00  -3.4227605600457323e-01 -3.4224118435130668e-01 0.0000000000000000e+00  -3.7619112884305894e-01 -3.7572612311300746e-01 0.0000000000000000e+00  -9.2985041937358770e-01 -9.2970527004930803e-01 0.0000000000000000e+00  -4.4972003746114986e-01 -4.4973937177867573e-01 0.0000000000000000e+00  -7.5930865500935063e-01 -7.5891370035303685e-01 0.0000000000000000e+00  -9.0569977960552428e-01 -9.0549540784218308e-01 0.0000000000000000e+00  -8.0947234500670318e-01 -8.0940780992114503e-01 0.0000000000000000e+00  -9.0651139296376981e-01 -9.1150820918379993e-01 0.0000000000000000e+00  -8.6171947996139897e-01 -8.6160055287913928e-01 0.0000000000000000e+00  8.5473451413181092e-02 8.5388714828249807e-02 0.0000000000000000e+00  -7.7421487038991793e-03 -8.1362818171475636e-03 0.0000000000000000e+00  3.5891645697190327e-01 3.6601231349315416e-01 0.0000000000000000e+00  3.1674012156953514e-02 3.1611941451284424e-02 0.0000000000000000e+00  -6.5457357216074974e-01 -6.5522308237376414e-01 0.0000000000000000e+00  -4.5987580993813981e-01 -4.5992738568001296e-01 0.0000000000000000e+00  -5.9645604438233724e-01 -5.9673670761611253e-01 0.0000000000000000e+00  -9.6200914559339457e-01 -9.6223725668005566e-01 0.0000000000000000e+00  -9.5203176075235785e-01 -9.5667694770458667e-01 0.0000000000000000e+00  1.7828781309095904e-01 1.7845354283336451e-01 0.0000000000000000e+00  -7.0140824257772660e-01 -7.0129399480008758e-01 0.0000000000000000e+00  -5.2625335504967730e-01 -5.2638089541077082e-01 0.0000000000000000e+00  -4.0949477912768600e-01 -4.0954658934489635e-01 0.0000000000000000e+00  -6.1624302312698975e-01 -6.1639256037734302e-01 0.0000000000000000e+00  -7.7329324830741208e-01 -7.7743517354664615e-01 0.0000000000000000e+00  -3.6331441599185693e-01 -3.6338475178763296e-01 0.0000000000000000e+00  2.0900377045603535e-01 2.0946082187686710e-01 0.0000000000000000e+00  -1.8969226236028625e-01 -1.8962054900888475e-01 0.0000000000000000e+00  -2.8612057968898474e-01 -2.8620132983105590e-01 0.0000000000000000e+00  -5.9218785210265135e-01 -5.9586114017912728e-01 0.0000000000000000e+00  -4.8415788705113449e-01 -4.8700221040747199e-01 0.0000000000000000e+00  -4.8695883416008934e-01 -4.8360919994158857e-01 0.0000000000000000e+00  -5.9611285704034134e-01 -5.9216960288375375e-01 0.0000000000000000e+00  -8.4679789295537045e-01 -8.4664390306739112e-01 0.0000000000000000e+00  -8.5042652277425468e-01 -8.5047921738785837e-01 0.0000000000000000e+00  -7.8461803187810664e-01 -7.8469213410786709e-01 0.0000000000000000e+00  -9.4765289909525441e-01 -9.4742589276250488e-01 0.0000000000000000e+00  -9.1314478995362036e-01 -9.1322587950036005e-01 0.0000000000000000e+00  -1.4475529196999556e-01 -1.4525928651835010e-01 0.0000000000000000e+00  -9.9854663115669628e-01 -1.0076359199611202e+00 0.0000000000000000e+00  -1.0065137182770016e+00 -9.9885327533738477e-01 0.0000000000000000e+00  3.3587048299720125e-02 3.2992758164299814e-02 0.0000000000000000e+00  -8.2705151515935715e-01 -8.2741364200850376e-01 0.0000000000000000e+00  -8.3608116637607355e-01 -8.3597493001205936e-01 0.0000000000000000e+00  -7.9914524031700385e-01 -7.9870378122816799e-01 0.0000000000000000e+00  -6.9020478366921756e-01 -6.8997490473703349e-01 0.0000000000000000e+00  -3.5699240588063236e-01 -3.5731141386459070e-01 0.0000000000000000e+00  -4.7098729230255321e-01 -4.7062729399640241e-01 0.0000000000000000e+00  -1.3310117090524773e-01 -1.3248157556680867e-01 0.0000000000000000e+00  -1.3289997154620642e-01 -1.3303943032979446e-01 0.0000000000000000e+00  -2.5554211081708089e-01 -2.5087301478012308e-01 0.0000000000000000e+00  -3.7422497240389929e-01 -3.7004815607216412e-01 0.0000000000000000e+00  -4.0076410025528184e-03 -8.4697178434259106e-03 0.0000000000000000e+00  -1.3286319612605799e-01 -1.2863758695241639e-01 0.0000000000000000e+00  -2.5104237437555077e-01 -2.5556427155271078e-01 0.0000000000000000e+00  -1.2857861619255900e-01 -1.3300873878122052e-01 0.0000000000000000e+00  -6.8810517061434284e-01 -6.9234682445177309e-01 0.0000000000000000e+00  -3.7020852601624787e-01 -3.7417525887866199e-01 0.0000000000000000e+00  -8.4645203428728755e-01 -8.5116366543145738e-01 0.0000000000000000e+00  -9.8302736943323898e-01 -9.8753414335649981e-01 0.0000000000000000e+00  -9.8841146760412268e-01 -9.8311153211722724e-01 0.0000000000000000e+00  -8.5322967541069639e-01 -8.4664358869992951e-01 0.0000000000000000e+00  -7.7688208308806384e-01 -7.7348993422686463e-01 0.0000000000000000e+00  -6.9325880431835274e-01 -6.8825446479412389e-01 0.0000000000000000e+00  1.2100200735310083e-01 1.1650235549823432e-01 0.0000000000000000e+00  2.4542642427700373e-01 2.3961414730955732e-01 0.0000000000000000e+00  -1.0693509797586109e-01 -1.0737221484854634e-01 0.0000000000000000e+00  -7.7498106372670050e-01 -7.7385380754180755e-01 0.0000000000000000e+00  2.9695658188784885e-01 2.9621637267094986e-01 0.0000000000000000e+00  -3.2926927152995183e-01 -3.2897415343929820e-01 0.0000000000000000e+00  -5.9165394203873733e-01 -5.9125647061630660e-01 0.0000000000000000e+00  -6.8295412059778648e-01 -6.8265083149378358e-01 0.0000000000000000e+00  -5.9177615718699350e-01 -5.9179614502160294e-01 0.0000000000000000e+00  -3.9448599904390680e-01 -3.9409459253430512e-01 0.0000000000000000e+00  -9.7903943750433753e-01 -9.7983499237452687e-01 0.0000000000000000e+00  -9.5494746354859850e-01 -9.5409923910897487e-01 0.0000000000000000e+00  -2.0744235989352300e-01 -2.0723212705689653e-01 0.0000000000000000e+00  -2.1346613596299133e-01 -2.1335430950974438e-01 0.0000000000000000e+00  -4.5478063862548512e-01 -4.5485939534402342e-01 0.0000000000000000e+00  -2.2285173771889361e-01 -2.2294834483346332e-01 0.0000000000000000e+00  -9.4760873471367052e-02 -9.4528582776844464e-02 0.0000000000000000e+00  -8.9724454695880129e-01 -8.9775626055574187e-01 0.0000000000000000e+00  -5.1828989018317972e-01 -5.1809187928550160e-01 0.0000000000000000e+00  -4.5384512581651870e-01 -4.5383746314167811e-01 0.0000000000000000e+00  -6.8243640878893508e-01 -6.8300284729479255e-01 0.0000000000000000e+00  1.0553734591516958e-01 1.0532501186735933e-01 0.0000000000000000e+00  -4.9907084096974497e-01 -4.9913126552778775e-01 0.0000000000000000e+00  -3.8235824406668240e-01 -3.8249962944215465e-01 0.0000000000000000e+00  -4.6830440391335348e-01 -4.6835358332266386e-01 0.0000000000000000e+00  -3.7427972954471922e-01 -3.7406491430851718e-01 0.0000000000000000e+00  -5.1926334058802182e-01 -5.1922283042717432e-01 0.0000000000000000e+00  -4.7677416415227096e-02 -4.7506627290911624e-02 0.0000000000000000e+00  -1.0856206640588198e-01 -1.0794591687224556e-01 0.0000000000000000e+00  -7.1662849765750525e-01 -7.1608104117155269e-01 0.0000000000000000e+00  -8.8506050694270622e-01 -8.8549478380061541e-01 0.0000000000000000e+00  -4.7235432545412914e-01 -4.7211027679689616e-01 0.0000000000000000e+00  -6.0395466858462155e-01 -6.0431728027219800e-01 0.0000000000000000e+00  1.4485761449950074e-01 1.4523075580533285e-01 0.0000000000000000e+00  2.5234550856715615e-01 2.5382058174337319e-01 0.0000000000000000e+00  -3.8066608935674662e-01 -3.8075542861161321e-01 0.0000000000000000e+00  -1.9424106755092382e-01 -1.9400887528656396e-01 0.0000000000000000e+00  -2.4023849812439441e-01 -2.4046960622002761e-01 0.0000000000000000e+00  -8.9409608923701089e-01 -8.9469883192252841e-01 0.0000000000000000e+00  -6.5335089096283339e-01 -6.5325337817776619e-01 0.0000000000000000e+00  -5.9900667058020263e-01 -5.9916480573157094e-01 0.0000000000000000e+00  -8.5724200864686573e-02 -8.5695965793380499e-02 0.0000000000000000e+00  -2.6929184940809758e-01 -2.6963463921281811e-01 0.0000000000000000e+00  -2.5588095808951961e-01 -2.5572154124753138e-01 0.0000000000000000e+00  -7.0814000962056844e-01 -7.0768854990980801e-01 0.0000000000000000e+00  -4.7277638111935416e-01 -4.7243543978998981e-01 0.0000000000000000e+00  -6.0500746110479720e-01 -6.0507979467535500e-01 0.0000000000000000e+00  -5.6502982767359300e-01 -5.6501293656367768e-01 0.0000000000000000e+00  -1.8254444300072328e-01 -1.8262914143773562e-01 0.0000000000000000e+00  -6.5366331344944528e-01 -6.5373385403766215e-01 0.0000000000000000e+00  -2.6669750579496498e-01 -2.6711451836001454e-01 0.0000000000000000e+00  1.5185483574088893e-01 1.5287137796127634e-01 0.0000000000000000e+00  1.0308322826633837e-01 1.0421173696192532e-01 0.0000000000000000e+00  -5.1076039518676764e-01 -5.1067331522356751e-01 0.0000000000000000e+00  -8.6135882573415645e-01 -8.6144185000881834e-01 0.0000000000000000e+00  -6.3579178006209780e-01 -6.3589352553695255e-01 0.0000000000000000e+00  -5.0998135040188641e-01 -5.1010782015320022e-01 0.0000000000000000e+00  -9.4640103662645791e-01 -9.4588781155111346e-01 0.0000000000000000e+00  -9.8282746386375330e-01 -9.8058296536730927e-01 0.0000000000000000e+00  -5.2956823471526304e-01 -5.3001094238256263e-01 0.0000000000000000e+00  -3.5891005940867138e-01 -3.5876831776751794e-01 0.0000000000000000e+00  -4.5502102519104159e-01 -4.5524898527987612e-01 0.0000000000000000e+00  -4.0921946027292849e-01 -4.0887776194883790e-01 0.0000000000000000e+00  -9.1853828818506489e-01 -9.1895810682848511e-01 0.0000000000000000e+00  2.3505114486484631e-02 2.3311476279529172e-02 0.0000000000000000e+00  -7.6390158488044468e-01 -7.6378586299154527e-01 0.0000000000000000e+00  -8.4241240861821276e-01 -8.4397392104105751e-01 0.0000000000000000e+00  -7.9908581382120480e-01 -8.0028018125903311e-01 0.0000000000000000e+00  -7.8304907358411402e-01 -7.8280115501358005e-01 0.0000000000000000e+00  -7.5110934608181135e-01 -7.5097702713320225e-01 0.0000000000000000e+00  -5.0487225456278928e-01 -5.0448325040014119e-01 0.0000000000000000e+00  -4.7074452667654743e-01 -4.7023648777212523e-01 0.0000000000000000e+00  -3.5336190363767539e-01 -3.5335052489950686e-01 0.0000000000000000e+00  -2.3506408150333888e-01 -2.3494268906786286e-01 0.0000000000000000e+00  -9.6723838309067744e-01 -9.6891631471187911e-01 0.0000000000000000e+00  -9.3638388613952639e-01 -9.3659262686683087e-01 0.0000000000000000e+00  -9.4918218182245107e-01 -9.4900870241377744e-01 0.0000000000000000e+00  -3.0040563273543019e-01 -3.0082200775883550e-01 0.0000000000000000e+00  -2.7509244443401726e-01 -2.7503330432908119e-01 0.0000000000000000e+00