<?xml version="1.0"?>
<VTKFile type="UnstructuredGrid"  version="0.1"  >
<UnstructuredGrid>
<Piece  NumberOfPoints="1385" NumberOfCells="2640">
<Points>
<DataArray  type="Float64"  NumberOfComponents="3"  format="ascii">0 0 0  1 0 0  1 1 0  0 1 0  0.5 0 0  1 0.5 0  0.5 1 0  0 0.5 0  0.5 0.5 0  0 0.25 0  0.25 0 0  0.25 1 0  0 0.75 0  1 0.25 0  0.75 0 0  1 0.75 0  0.75 1 0  0.7083333333333333 0.2916666666666667 0  0.2916666666666666 0.7083333333333334 0  0.375 0.25 0  0.75 0.625 0  0.2569444444444444 0.4652777777777778 0  0.5366379310344828 0.7535919540229885 0  0.1875 0.1875 0  0.8125 0.8125 0  0.869047619047619 0.375 0  0.1450441919191919 0.6052714646464646 0  0.375 0.8690476190476191 0  0.5526960784313725 0.1825980392156862 0  0.8385416666666666 0.1614583333333334 0  0.1614583333333333 0.8385416666666667 0  0.6736111111111112 0.4652777777777778 0  0.1367521367521368 0.3477564102564102 0  0.6570970491253563 0.8648656830417855 0  0.5102479397556124 0.3386260301221938 0  0.3654513888888889 0.5737847222222222 0  0.6929750044954185 0.1362784921584263 0  0.388576102743835 0.411911725237599 0  0.6091269841269842 0.5942460317460317 0  0.875 0.6875 0  0.427278890279516 0.119889445139758 0  0.8544456845238095 0.5213913690476191 0  0.125 0 0  0 0.125 0  1 0.875 0  0.875 1 0  0.1280008648150532 0.4769292340226777 0  0.2695382451711197 0.3321750950221553 0  0.7031567235715964 0.7447810921428012 0  0.625 0 0  0.375 0 0  0.125 1 0  0.875 0 0  0 0.375 0  0 0.625 0  1 0.375 0  0.375 1 0  1 0.125 0  0 0.875 0  0.625 1 0  1 0.625 0  0.2979288363930608 0.1201429454643536 0  0.410919540229885 0.7484605911330049 0  0.5325041980395562 0.878905151526474 0  0.4831670727569156 0.6331060043826487 0  0.1735997378973042 0.7204747378973043 0  0.2534919507575758 0.5772372159090909 0  0.2633928571428572 0.8876488095238095 0  0.8199404761904761 0.2730654761904762 0  0.75830270586982 0.3919383189517417 0  0.5750282248382511 0.4237522353023667 0  0.6008360210023379 0.2794828358598495 0  0.08163442644334186 0.6821295860397322 0  0.08333333333333333 0.1875 0  0.2028380815996574 0.08844602719988583 0  0.2766521142611967 0.2325436572164097 0  0.90625 0.78125 0  0.890625 0.890625 0  0.7545696325008384 0.8973565441669461 0  0.5625 0.08086590340834317 0  0.09077380952380953 0.09077380952380952 0  0.4610923478694773 0.209034015149656 0  0.7542527598351648 0.5248380520595106 0  0.6459235536037465 0.3619913988405765 0  0.7560381768882634 0.20506142233852 0  0.07073252688172042 0.8125 0  0.0924753097241701 0.9078102849914793 0  0.9292674731182795 0.1875 0  0.9075246902758297 0.09218971500852073 0  0.8125 0.07073252688172045 0  0.2400955776842301 0.7869705776842302 0  0.9121050213379069 0.2781978201831695 0  0.7916878157143976 0.7239689078571988 0  0.9345238095238094 0.4375 0  0.4375 0.9345238095238095 0  0.3725616989755203 0.6651895248862173 0  0.06536271996350887 0.5625 0  0.9348362560379583 0.5625 0  0.456646798987055 0.8277247094351965 0  0.1875 0.9355758238725954 0  0.6169761231634859 0.6939779188977889 0  0.6226854751147515 0.7827911461419014 0  0.3305695598137626 0.7901697871282585 0  0.5865305325818898 0.5101085479043448 0  0.6622701297028378 0.2177663989757395 0  0.1354166666666667 0.2591702279202279 0  0 0.3125 0  0.2094429575680048 0.3936361846162499 0  0.836666296419157 0.607917407161686 0  0.6875 1 0  0.214261555450504 0.6492551722020035 0  0 0.4375 0  0.07731537126068377 0.40625 0  0.3427725432967068 0.4879566233699599 0  0.3550792513951871 0.3331953632609953 0  0.4462473953896857 0.2887834789342508 0  0.4747801464819794 0.417386052030127 0  0.8229836475148948 0.4443292349237342 0  0.7322605135514757 0.8199240278289671 0  0.6756431877205955 0.5468989748126787 0  0.1968419507215863 0.5194573482612496 0  0.3285590277777778 0.9345238095238095 0  0.8125 1 0  0.4198917601920009 0.5134893045331258 0  0.5232405503206691 0.2595791787880157 0  1 0.9375 0  0.1987510870015086 0.3025185951894431 0  0.5625 1 0  0.6005390654136388 0.9228110509230952 0  0.6411254848194414 0.07704872765442942 0  0.3357233162523242 0.1855113224530532 0  0.6730653396610877 0.6393887462324165 0  0.310966987234063 0.6240019765311626 0  0.7368737836204349 0.07457755202327881 0  0.6192316414418171 0.1485238406378594 0  0.5432429670607106 0.678552703844006 0  0.4754371679695679 0.7103946803120881 0  0.07501324890749672 0.3043839897335739 0  0.5358146975860403 0.5688321463205916 0  0.3115271739500156 0.3982137365971444 0  0.3625191397122174 0.0767854603650549 0  0.5024029442563831 0.1264128223758444 0  0.4375 0 0  0.4699946908887376 0.06379961173775725 0  0.9375 0.71875 0  0.9272105898044465 0.635671179608893 0  0.9375 1 0  0.6690971819568612 0.9331530898202766 0  0.1073454944778885 0.7499206387638554 0  0.8699082999280406 0.2232403652524313 0  0.5773118091863964 0.3548027349159383 0  0.1354166666666667 0.1428571428571428 0  0.3125 0 0  0.8241684193077341 0.9257452995055244 0  0.4352314948354036 0.3586940847489378 0  0.4351301473778832 0.5819726043539077 0  0.8073232928518163 0.3419398170341962 0  0.7775949246947366 0.1298519409204575 0  0.6875 0 0  0.7413513991851041 0.457933324954483 0  0.939453125 0.841796875 0  0.5630355154606987 0.8171875156478349 0  0.9345238095238095 0.3461466592368577 0  0.9375 0 0  1 0.0625 0  0.0625 1 0  0 0.9375 0  0.06552178593177167 0.4969053669623468 0  0.1424866619031703 0.4130277709291224 0  0.1275287182444726 0.5422946908002588 0  0.2637686595586339 0.06413888464529549 0  0.2524263535491086 0.1697437503243817 0  0.7367218397988525 0.6888573970660841 0  0.0625 0 0  0 0.0625 0  0.8463594539285995 0.7578283617857982 0  0.3128751192101563 0.2851997374369947 0  0.4015281788351144 0.1806421385113692 0  0.1910251795116588 0.4553332197174453 0  0.287797471442006 0.5222621440543902 0  0.3962628745986055 0.8097380085535307 0  0.3505895299554843 0.7304878890838692 0  0.5019151500495276 0.9356042615328103 0  0.9374389419410134 0.4999931039076005 0  0.3125 1 0  0.1875 1 0  1 0.5625 0  0.4375 1 0  1 0.3125 0  1 0.4375 0  0.8125 0 0  1 0.1875 0  0.5625 0 0  0.1875 0 0  0 0.1875 0  0 0.5625 0  0 0.6875 0  0 0.8125 0  1 0.6875 0  1 0.8125 0  0.8021696218581627 0.6612893947866073 0  0.06154922295426143 0.6239401126946708 0  0.9359375 0.9359375 0  0.4666158024849896 0.7691515918155014 0  0.2318201265217025 0.7064974250277525 0  0.1565954253579966 0.6635489312486841 0  0.1598132503680848 0.7787147500325552 0  0.3146529991605639 0.8510876378205265 0  0.1461873209418733 0.05982804528877814 0  0.06109554988524315 0.2446551776247686 0  0.8054950308560754 0.5564226538848541 0  0.470541749491976 0.8853316336952531 0  0.6948472567465137 0.4042308563372457 0  0.8802828472348889 0.4658893256343853 0  0.6788075634946739 0.7974194205806069 0  0.2155048659603867 0.2428201584940968 0  0.8131223143423806 0.2132171049028394 0  0.4330798005432235 0.6671274900735726 0  0.6015279126162613 0.2187368078743274 0  0.8061636571464289 0.8703766630361714 0  0.7008230445061776 0.3478568388444072 0  0.8638466246958771 0.3147095987735538 0  0.204801534004265 0.8789209409594009 0  0.2449006736431132 0.9424182882803838 0  0.7611268409371427 0.2643056884799992 0  0.7552800864046191 0.7678006649959446 0  0.5983639638906616 0.864113435029236 0  0.1956559506814437 0.577281203577426 0  0.3527670268164207 0.1320469097565204 0  0.7530364577483248 0.3262386077083089 0  0.4535919187979363 0.4690107087451527 0  0.8824869791666666 0.8336588541666666 0  0.8814453125 0.9451171875 0  0.5582987942628019 0.622421666543858 0  0.6817532446064828 0.6939001801354731 0  0.3830295138888889 0.9450968952922078 0  0.4140603937012541 0.05211333372716105 0  0.5535864501303013 0.3060591985391672 0  0.6560130086346878 0.2729726562211558 0  0.890203140221684 0.5948314305427268 0  0.7043857725999024 0.593980890020804 0  0.5105843922695152 0.8016828014338627 0  0.05365910753708378 0.7315110031682004 0  0.616904573672261 0.4621186633436136 0  0.5338511646455415 0.387875898899613 0  0.5231769258947843 0.4477682463140762 0  0.650302973237622 0.7370722302085519 0  0.3927483139621257 0.4662414504529014 0  0.8034595960585199 0.4972538342758211 0  0.7738337841682438 0.9496376207663251 0  0.7193737507158268 0.954685447650112 0  0.482525916480686 0.5528257169991676 0  0.2533501157346781 0.2809495420003238 0  0.3118487924482243 0.5702930126570319 0  0.6257598847669529 0.4104163315430518 0  0.1354166666666667 0.1955605158730158 0  0.04166666666666666 0.15625 0  0.3956448985530264 0.6174149462065157 0  0.8102897701818546 0.3938784238208349 0  0.2641154190013625 0.8344469561943118 0  0.642852220770013 0.5068794586563659 0  0.05271458179508221 0.355846947336007 0  0.7021551360070266 0.8921457280225779 0  0.5692125776683765 0.1328512638850284 0  0.5206162811937602 0.04865158770992991 0  0.6001838442201555 0.04540556991297563 0  0.2597716608242787 0.4118346398477178 0  0.4040584599473195 0.3179589136784675 0  0.1480337679295207 0.8941560631483065 0  0.1344356707112281 0.9466251177415842 0  0.7114696411829317 0.4983917389078826 0  0.7585704698442475 0.5751926345944629 0  0.2189131956390871 0.04022068508159698 0  0.2476935455192043 0.1123642267635843 0  0.185995005654517 0.1365524537205238 0  0.6223414373308711 0.643380839165121 0  0.5732602596637543 0.7190051747306219 0  0.268358222364537 0.6586246524467934 0  0.3265879848129173 0.2369791782191225 0  0.1267095595787346 0.7034787238999181 0  0.1115202922226038 0.6421997933884982 0  0.3128688392940203 0.07260997451790079 0  0.550724900485678 0.9253360991633187 0  0.7142608810459105 0.2384904702214873 0  0.7045869185243887 0.1871826897887429 0  0.890625 0.734375 0  0.953125 0.765625 0  0.2111812642821677 0.8286209446459138 0  0.9590293078204457 0.09375 0  0.953431269039847 0.1435719386408004 0  0.04097069217955424 0.90625 0  0.04656873096015299 0.8564280613591996 0  0.1078743037981226 0.8541621766048062 0  0.8921256962018773 0.1458378233951939 0  0.8521576979194619 0.1084496634207678 0  0.8655663982740958 0.05464346096571447 0  0.04005659640905543 0.09375 0  0.1001448316533417 0.04246776244228261 
[...]
<PointData  Vectors="f_8394-3"> 
<DataArray  type="Float64"  Name="f_8394-3"  NumberOfComponents="3" format="ascii">-1.0016063474196404e+00 -1.0016011590024176e+00 0.0000000000000000e+00  -5.4078977747792722e-01 -5.4088881737475336e-01 0.0000000000000000e+00  4.1666070200598443e-01 4.1666070200579763e-01 0.0000000000000000e+00  -5.4076003512720161e-01 -5.4085783105395913e-01 0.0000000000000000e+00  -8.7850613964092061e-01 -8.8215245998152292e-01 0.0000000000000000e+00  -6.7352271592894114e-02 -7.0768017152162604e-02 0.0000000000000000e+00  -7.0734987194197921e-02 -6.7725475323745662e-02 0.0000000000000000e+00  -8.8178422645213639e-01 -8.7840777263645209e-01 0.0000000000000000e+00  -5.4091467837740104e-01 -5.4098994904758879e-01 0.0000000000000000e+00  -9.7335544175876054e-01 -9.6998930461512345e-01 0.0000000000000000e+00  -9.6996141469770392e-01 -9.7360079335629512e-01 0.0000000000000000e+00  -3.1564324524193821e-01 -3.1226834499196304e-01 0.0000000000000000e+00  -7.3546387903776311e-01 -7.3247381377919307e-01 0.0000000000000000e+00  -3.1246992845133637e-01 -3.1563072443933671e-01 0.0000000000000000e+00  -7.3252588888352443e-01 -7.3511807067349921e-01 0.0000000000000000e+00  1.8227304505522057e-01 1.7840547008654281e-01 0.0000000000000000e+00  1.7843747252793452e-01 1.8219300305281180e-01 0.0000000000000000e+00  -5.4090245780632462e-01 -5.4107455365051005e-01 0.0000000000000000e+00  -5.4094629262373028e-01 -5.4079443725817689e-01 0.0000000000000000e+00  -8.1182541710952238e-01 -8.1191382339590967e-01 0.0000000000000000e+00  -1.9469492399688038e-01 -1.9501635437860396e-01 0.0000000000000000e+00  -7.5119284949391019e-01 -7.5117823270481154e-01 0.0000000000000000e+00  -2.7718970742787963e-01 -2.7701183980874122e-01 0.0000000000000000e+00  -9.3144593050225322e-01 -9.3155103062166800e-01 0.0000000000000000e+00  5.3973256496568311e-02 5.4414361623141609e-02 0.0000000000000000e+00  -3.2129931250426375e-01 -3.2149364137420605e-01 0.0000000000000000e+00  -7.3241279084975941e-01 -7.3228368650099152e-01 0.0000000000000000e+00  -3.2141501848158366e-01 -3.2116764831095435e-01 0.0000000000000000e+00  -7.4247113793336816e-01 -7.4243781416483934e-01 0.0000000000000000e+00  -5.4095392938619402e-01 -5.4099077447584809e-01 0.0000000000000000e+00  -5.4116018968032553e-01 -5.4083313668371802e-01 0.0000000000000000e+00  -4.1906464983591174e-01 -4.1908383747638822e-01 0.0000000000000000e+00  -8.8592915525314964e-01 -8.8585696772916478e-01 0.0000000000000000e+00  -4.8857455137211084e-02 -4.8932158286670739e-02 0.0000000000000000e+00  -6.6145521437284804e-01 -6.6158859957277238e-01 0.0000000000000000e+00  -5.9098792690971647e-01 -5.9116460757085898e-01 0.0000000000000000e+00  -6.7613954649909447e-01 -6.7631198518073632e-01 0.0000000000000000e+00  -6.9707366419073025e-01 -6.9722026103635382e-01 0.0000000000000000e+00  -3.5954906699569356e-01 -3.5970687918986755e-01 0.0000000000000000e+00  -8.2161053408105617e-03 -8.4094683550931509e-03 0.0000000000000000e+00  -8.5507105466302824e-01 -8.5487631150826981e-01 0.0000000000000000e+00  -1.9381420487064349e-01 -1.9389477868486080e-01 0.0000000000000000e+00  -9.9321525929050258e-01 -9.9785679907797287e-01 0.0000000000000000e+00  -9.9803522410004675e-01 -9.9332095591782221e-01 0.0000000000000000e+00  3.0439224259085362e-01 2.9982508313497819e-01 0.0000000000000000e+00  2.9987197101523971e-01 3.0400889668127556e-01 0.0000000000000000e+00  -8.2357457770925047e-01 -8.2340956281671751e-01 0.0000000000000000e+00  -8.2532011104669523e-01 -8.2532253448102511e-01 0.0000000000000000e+00  -1.2291315899377048e-01 -1.2254544431924452e-01 0.0000000000000000e+00  -8.1187493853812043e-01 -8.1521930101465379e-01 0.0000000000000000e+00  -9.3141555841303703e-01 -9.3504316388385855e-01 0.0000000000000000e+00  -4.3165689013672703e-01 -4.2879674257119815e-01 0.0000000000000000e+00  -6.4165333258243951e-01 -6.4533850823715189e-01 0.0000000000000000e+00  -9.3540066594594995e-01 -9.3154576478562623e-01 0.0000000000000000e+00  -8.1517917617768920e-01 -8.1181274293179129e-01 0.0000000000000000e+00  -1.9139564896105493e-01 -1.9478845745161685e-01 0.0000000000000000e+00  -1.9471300816173220e-01 -1.9135584765815666e-01 0.0000000000000000e+00  -4.2901765488425514e-01 -4.3160525197993482e-01 0.0000000000000000e+00  -6.4490897771247879e-01 -6.4164906867563709e-01 0.0000000000000000e+00  5.4174849302325460e-02 5.7701242473111002e-02 0.0000000000000000e+00  5.7411017170066088e-02 5.4227943636986770e-02 0.0000000000000000e+00  -9.1493557180189211e-01 -9.1509019488435606e-01 0.0000000000000000e+00  -4.0029557462655924e-01 -4.0022684521721319e-01 0.0000000000000000e+00  -1.5879834997184400e-01 -1.5893747349513124e-01 0.0000000000000000e+00  -4.3962829108972318e-01 -4.3959824139221870e-01 0.0000000000000000e+00  -6.2701080235773266e-01 -6.2685870464511351e-01 0.0000000000000000e+00  -6.7511432830569207e-01 -6.7513560397139483e-01 0.0000000000000000e+00  -4.0791932388256413e-01 -4.0804322638351864e-01 0.0000000000000000e+00  -4.6037196578904938e-01 -4.6050589582787854e-01 0.0000000000000000e+00  -4.0864072039194355e-01 -4.0886222666845695e-01 0.0000000000000000e+00  -5.4194368601821297e-01 -5.4197200950696811e-01 0.0000000000000000e+00  -6.3779384845733955e-01 -6.3755940165978497e-01 0.0000000000000000e+00  -7.2320653285472303e-01 -7.2306598802425426e-01 0.0000000000000000e+00  -9.6474451955820850e-01 -9.6417375218635359e-01 0.0000000000000000e+00  -9.5874719029346045e-01 -9.5914422148766187e-01 0.0000000000000000e+00  -8.7417903366526095e-01 -8.7401045973756697e-01 0.0000000000000000e+00  1.1668862328579710e-01 1.1613969945165986e-01 0.0000000000000000e+00  2.0887403586516590e-01 2.0899341744828140e-01 0.0000000000000000e+00  8.0976247914386498e-02 8.1057528346320323e-02 0.0000000000000000e+00  -8.0108335664196906e-01 -8.0102771238572579e-01 0.0000000000000000e+00  -9.8413552729920151e-01 -9.8424127540820860e-01 0.0000000000000000e+00  -7.8464129332039656e-01 -7.8476931448830678e-01 0.0000000000000000e+00  -2.8802202909443103e-01 -2.8774735351268071e-01 0.0000000000000000e+00  -5.3427078787043958e-01 -5.3425085493049018e-01 0.0000000000000000e+00  -5.7325266328390379e-01 -5.7321666242417857e-01 0.0000000000000000e+00  -6.3570831414080997e-01 -6.3529431521787649e-01 0.0000000000000000e+00  -5.4059511699589680e-01 -5.4040095419917933e-01 0.0000000000000000e+00  -4.3868822361129611e-01 -4.3906005852032981e-01 0.0000000000000000e+00  -5.4072693098622127e-01 -5.4111710117711453e-01 0.0000000000000000e+00  -6.3572002674771144e-01 -6.3545513875946080e-01 0.0000000000000000e+00  -5.1784688731044559e-01 -5.1817323593254228e-01 0.0000000000000000e+00  -3.7167018217587999e-01 -3.7194966689625247e-01 0.0000000000000000e+00  -5.5062494604933912e-02 -5.5265338770983552e-02 0.0000000000000000e+00  -1.9723390000340840e-01 -1.9770356774389822e-01 0.0000000000000000e+00  -1.9770241461160898e-01 -1.9717651109307002e-01 0.0000000000000000e+00  -5.0863747821551419e-01 -5.0857273128933811e-01 0.0000000000000000e+00  -8.1022921986170271e-01 -8.1036787556034606e-01 0.0000000000000000e+00  -7.3114888460109356e-02 -7.3304341729897610e-02 0.0000000000000000e+00  -2.8282557624945509e-01 -2.8295186636412972e-01 0.0000000000000000e+00  -4.3360836469886144e-01 -4.3280524360064182e-01 0.0000000000000000e+00  -2.5721632354434854e-01 -2.5717657519699433e-01 0.0000000000000000e+00  -1.6486293956177356e-01 -1.6459517039662599e-01 0.0000000000000000e+00  -4.3560930304307105e-01 -4.3552006502812224e-01 0.0000000000000000e+00  -4.5715065260926452e-01 -4.5713367631639584e-01 0.0000000000000000e+00  -6.3773706978295219e-01 -6.3791651394950910e-01 0.0000000000000000e+00  -9.2410456131335073e-01 -9.2398829431914242e-01 0.0000000000000000e+00  -9.5581168793684501e-01 -9.5247651072253969e-01 0.0000000000000000e+00  -8.2461452837885374e-01 -8.2451679335992478e-01 0.0000000000000000e+00  -1.2591362841302101e-01 -1.2609647023948570e-01 0.0000000000000000e+00  1.1655716431319463e-01 1.2016168788572161e-01 0.0000000000000000e+00  -6.5044793377174104e-01 -6.5044257958418250e-01 0.0000000000000000e+00  -9.0962032492317912e-01 -9.0689262122472636e-01 0.0000000000000000e+00  -8.8642447562349713e-01 -8.8619075427472249e-01 0.0000000000000000e+00  -6.7516279323279205e-01 -6.7530325767672450e-01 0.0000000000000000e+00  -7.7290471898451196e-01 -7.7322549437189181e-01 0.0000000000000000e+00  -7.4265595257162564e-01 -7.4263738531073631e-01 0.0000000000000000e+00  -6.2855242653365651e-01 -6.2853933821944064e-01 0.0000000000000000e+00  -2.9921112921689835e-01 -2.9923646397459019e-01 0.0000000000000000e+00  -1.8629454795844477e-02 -1.8486889520917114e-02 0.0000000000000000e+00  -3.4164554111857504e-01 -3.4154618859873898e-01 0.0000000000000000e+00  -7.5516211212139606e-01 -7.5514736911530578e-01 0.0000000000000000e+00  -3.0321927819920813e-01 -3.0296018296519978e-01 0.0000000000000000e+00  2.3964623948906122e-01 2.4371943388764197e-01 0.0000000000000000e+00  -5.9583989685197991e-01 -5.9552060858282241e-01 0.0000000000000000e+00  -7.0960547671189023e-01 -7.0958416873241437e-01 0.0000000000000000e+00  3.6345970532307464e-01 3.5889549950209132e-01 0.0000000000000000e+00  -8.7813440431330070e-01 -8.7806067878946070e-01 0.0000000000000000e+00  -8.3083901109938726e-03 -4.9963679144550792e-03 0.0000000000000000e+00  -4.7740782050502174e-02 -4.7275402901011732e-02 0.0000000000000000e+00  -7.5364171026014348e-01 -7.5416231718488269e-01 0.0000000000000000e+00  -8.6808930043868171e-01 -8.6809163567444680e-01 0.0000000000000000e+00  -2.5588217001646679e-01 -2.5597406405841822e-01 0.0000000000000000e+00  -5.9469835847343133e-01 -5.9463171117904667e-01 0.0000000000000000e+00  -6.8920866217647081e-01 -6.8958552001751339e-01 0.0000000000000000e+00  -7.2019777652561057e-01 -7.2016245180085026e-01 0.0000000000000000e+00  -3.4237746293529364e-01 -3.4241258316789686e-01 0.0000000000000000e+00  -3.7623710932625509e-01 -3.7590831314591178e-01 0.0000000000000000e+00  -9.3022439171856153e-01 -9.3002584859351844e-01 0.0000000000000000e+00  -4.4993235962145156e-01 -4.4996461432691659e-01 0.0000000000000000e+00  -7.5940675049305739e-01 -7.5930201610813497e-01 0.0000000000000000e+00  -9.0604478610706862e-01 -9.0611970299217504e-01 0.0000000000000000e+00  -8.0966478512648632e-01 -8.0959474816053545e-01 0.0000000000000000e+00  -9.0680405859188773e-01 -9.1054516667876428e-01 0.0000000000000000e+00  -8.6176261167243040e-01 -8.6235615121086995e-01 0.0000000000000000e+00  8.5973314872487147e-02 8.5366670432684533e-02 0.0000000000000000e+00  -7.5786688655963830e-03 -8.1000782256624680e-03 0.0000000000000000e+00  3.5901397588673545e-01 3.6359396691655715e-01 0.0000000000000000e+00  3.1566343292225935e-02 3.1947136326061353e-02 0.0000000000000000e+00  -6.5501089050408323e-01 -6.5543461266057890e-01 0.0000000000000000e+00  -4.6000055507321291e-01 -4.6015707789809790e-01 0.0000000000000000e+00  -5.9681597975413303e-01 -5.9692769721903460e-01 0.0000000000000000e+00  -9.6237375419082305e-01 -9.6254236906473922e-01 0.0000000000000000e+00  -9.5254107112205200e-01 -9.5617393931566708e-01 0.0000000000000000e+00  1.7832204414052122e-01 1.7866062382988890e-01 0.0000000000000000e+00  -7.0178537196895507e-01 -7.0171732764332873e-01 0.0000000000000000e+00  -5.2644115955195958e-01 -5.2652099520298223e-01 0.0000000000000000e+00  -4.0964797656570145e-01 -4.0968710981205947e-01 0.0000000000000000e+00  -6.1647078712999637e-01 -6.1656881003909769e-01 0.0000000000000000e+00  -7.7364693903063320e-01 -7.7680786287107850e-01 0.0000000000000000e+00  -3.6347455968755910e-01 -3.6352912050494435e-01 0.0000000000000000e+00  2.0976107988998244e-01 2.0927529123511318e-01 0.0000000000000000e+00  -1.8975929854629806e-01 -1.8961414745583594e-01 0.0000000000000000e+00  -2.8596546707646447e-01 -2.8639637506624288e-01 0.0000000000000000e+00  -5.9241519091732076e-01 -5.9491625605948018e-01 0.0000000000000000e+00  -4.8513307560219276e-01 -4.8720249370270802e-01 0.0000000000000000e+00  -4.8715727986696455e-01 -4.8481853311658407e-01 0.0000000000000000e+00  -5.9508914942752356e-01 -5.9243719967570130e-01 0.0000000000000000e+00  -8.4738472064248327e-01 -8.4718456031937861e-01 0.0000000000000000e+00  -8.5065743232020652e-01 -8.5078910294459087e-01 0.0000000000000000e+00  -7.8481649808206777e-01 -7.8493229820143839e-01 0.0000000000000000e+00  -9.4791801277832177e-01 -9.4830543970090220e-01 0.0000000000000000e+00  -9.1341062611561197e-01 -9.1339642314901792e-01 0.0000000000000000e+00  -1.4484835766165338e-01 -1.4512114416889371e-01 0.0000000000000000e+00  -9.9906980816848290e-01 -1.0046708159595363e+00 0.0000000000000000e+00  -1.0045545655446921e+00 -9.9912020429173198e-01 0.0000000000000000e+00  3.3538785082631681e-02 3.3138690159049827e-02 0.0000000000000000e+00  -8.2730204115028938e-01 -8.2757960212687176e-01 0.0000000000000000e+00  -8.3628371521747114e-01 -8.3627047900640761e-01 0.0000000000000000e+00  -7.9929126488114688e-01 -7.9906373526830698e-01 0.0000000000000000e+00  -6.9030481464781790e-01 -6.9027964726037361e-01 0.0000000000000000e+00  -3.5711588757144175e-01 -3.5728888418202370e-01 0.0000000000000000e+00  -4.7102466965669104e-01 -4.7085326887308476e-01 0.0000000000000000e+00  -1.3309897033526247e-01 -1.3236134157260604e-01 0.0000000000000000e+00  -1.3260060413190583e-01 -1.3316898938066685e-01 0.0000000000000000e+00  -2.5566247102969836e-01 -2.5225670310473425e-01 0.0000000000000000e+00  -3.7439035535616871e-01 -3.7125071102414642e-01 0.0000000000000000e+00  -5.0474650626589866e-03 -8.3902014129579421e-03 0.0000000000000000e+00  -1.3298834240029977e-01 -1.2987514069386957e-01 0.0000000000000000e+00  -2.5237977300878389e-01 -2.5568186066920723e-01 0.0000000000000000e+00  -1.2974743072719810e-01 -1.3306138337528028e-01 0.0000000000000000e+00  -6.8838798242481791e-01 -6.9167851355795795e-01 0.0000000000000000e+00  -3.7140562621252554e-01 -3.7433789374221599e-01 0.0000000000000000e+00  -8.4677931268210438e-01 -8.5023005498702431e-01 0.0000000000000000e+00  -9.8352480787006691e-01 -9.8711167793228938e-01 0.0000000000000000e+00  -9.8753740110826949e-01 -9.8351853307613857e-01 0.0000000000000000e+00  -8.5115194690424600e-01 -8.4699059566348067e-01 0.0000000000000000e+00  -7.7638850952801708e-01 -7.7374729007752863e-01 0.0000000000000000e+00  -6.9192211355422872e-01 -6.8849340101652845e-01 0.0000000000000000e+00  1.1996454579793180e-01 1.1654909608231331e-01 0.0000000000000000e+00  2.4385738398600026e-01 2.3970963971500892e-01 0.0000000000000000e+00  -1.0705728953539842e-01 -1.0744730288416759e-01 0.0000000000000000e+00  -7.7558022043751951e-01 -7.7448848626944700e-01 0.0000000000000000e+00  2.9743548784284812e-01 2.9717652499575431e-01 0.0000000000000000e+00  -3.2935943903979226e-01 -3.2901868486287128e-01 0.0000000000000000e+00  -5.9186096024874890e-01 -5.9160981504538945e-01 0.0000000000000000e+00  -6.8301503263610552e-01 -6.8287450081365608e-01 0.0000000000000000e+00  -5.9180633110931358e-01 -5.9190651938109229e-01 0.0000000000000000e+00  -3.9453828213269487e-01 -3.9440351226565618e-01 0.0000000000000000e+00  -9.7942354507678497e-01 -9.8072185807305901e-01 0.0000000000000000e+00  -9.5548813310108982e-01 -9.5440861292115398e-01 0.0000000000000000e+00  -2.0753266070741733e-01 -2.0742584721687274e-01 0.0000000000000000e+00  -2.1356499882924809e-01 -2.1346107967826444e-01 0.0000000000000000e+00  -4.5495784532141192e-01 -4.5500697831963843e-01 0.0000000000000000e+00  -2.2289233879768544e-01 -2.2298961620264959e-01 0.0000000000000000e+00  -9.4711765870640702e-02 -9.4471917902323288e-02 0.0000000000000000e+00  -8.9771714566284144e-01 -8.9788132508759566e-01 0.0000000000000000e+00  -5.1853697920014585e-01 -5.1841168715264496e-01 0.0000000000000000e+00  -4.5400495704878191e-01 -4.5394720627186952e-01 0.0000000000000000e+00  -6.8278599818753338e-01 -6.8299298531011932e-01 0.0000000000000000e+00  1.0556126887797970e-01 1.0553382099775611e-01 0.0000000000000000e+00  -4.9926789525156490e-01 -4.9933706654303056e-01 0.0000000000000000e+00  -3.8260182061096892e-01 -3.8275687265602870e-01 0.0000000000000000e+00  -4.6859873357980514e-01 -4.6849238983619490e-01 0.0000000000000000e+00  -3.7461069419574133e-01 -3.7378560592878657e-01 0.0000000000000000e+00  -5.1939693560680045e-01 -5.1940530054007794e-01 0.0000000000000000e+00  -4.7735579311418280e-02 -4.7600936956266125e-02 0.0000000000000000e+00  -1.0843214363331788e-01 -1.0816371804848672e-01 0.0000000000000000e+00  -7.1685969498708024e-01 -7.1656132842545084e-01 0.0000000000000000e+00  -8.8550664611957286e-01 -8.8574120554165969e-01 0.0000000000000000e+00  -4.7258385956534443e-01 -4.7251448401630891e-01 0.0000000000000000e+00  -6.0430821191895379e-01 -6.0448190422686598e-01 0.0000000000000000e+00  1.4490175976186076e-01 1.4516597427114691e-01 0.0000000000000000e+00  2.5278344008515186e-01 2.5433900325307157e-01 0.0000000000000000e+00  -3.8076276399318348e-01 -3.8083989052671696e-01 0.0000000000000000e+00  -1.9433479926440195e-01 -1.9415043412934660e-01 0.0000000000000000e+00  -2.4045005774529893e-01 -2.3996884331479218e-01 0.0000000000000000e+00  -8.9456820157836214e-01 -8.9539638637500485e-01 0.0000000000000000e+00  -6.5354144778485279e-01 -6.5353715159108094e-01 0.0000000000000000e+00  -5.9921211082889414e-01 -5.9933461776915831e-01 0.0000000000000000e+00  -8.5729416337787107e-02 -8.5752302112085621e-02 0.0000000000000000e+00  -2.6942155895971920e-01 -2.6961583381491455e-01 0.0000000000000000e+00  -2.5597581648778212e-01 -2.5582830708628074e-01 0.0000000000000000e+00  -7.0890958738204668e-01 -7.0814450537359330e-01 0.0000000000000000e+00  -4.7292690065499565e-01 -4.7267094684305422e-01 0.0000000000000000e+00  -6.0521170661763757e-01 -6.0522533360082165e-01 0.0000000000000000e+00  -5.6520908636037148e-01 -5.6518476714099519e-01 0.0000000000000000e+00  -1.8268537093965626e-01 -1.8260545875805542e-01 0.0000000000000000e+00  -6.5394150726044142e-01 -6.5401319410926195e-01 0.0000000000000000e+00  -2.6693991102834524e-01 -2.6711975511058134e-01 0.0000000000000000e+00  1.5202009923882326e-01 1.5345140590709255e-01 0.0000000000000000e+00  1.0314842697537127e-01 1.0466190959242266e-01 0.0000000000000000e+00  -5.1087117620467448e-01 -5.1083269990775104e-01 0.0000000000000000e+00  -8.6168319252121683e-01 -8.6172077535073321e-01 0.0000000000000000e+00  -6.3619693832175306e-01 -6.3616733881698639e-01 0.0000000000000000e+00  -5.1015701075660458e-01 -5.1022665645717691e-01 0.0000000000000000e+00  -9.4682494207921319e-01 -9.4652401443673218e-01 0.0000000000000000e+00  -9.8350866842802276e-01 -9.8104798050707664e-01 0.0000000000000000e+00  -5.2978494821069744e-01 -5.3008496462545573e-01 0.0000000000000000e+00  -3.5898402530772422e-01 -3.5897884644450451e-01 0.0000000000000000e+00  -4.5527622821436420e-01 -4.5545615803307193e-01 0.0000000000000000e+00  -4.0933843058092623e-01 -4.0908716741794221e-01 0.0000000000000000e+00  -9.1954334172524876e-01 -9.1900106778300150e-01 0.0000000000000000e+00  2.3491161825240109e-02 2.3430171373195953e-02 0.0000000000000000e+00  -7.6433466091161462e-01 -7.6434531394466165e-01 0.0000000000000000e+00  -8.4293532769102508e-01 -8.4453236114287134e-01 0.0000000000000000e+00  -7.9949846810086966e-01 -8.0106537551669366e-01 0.0000000000000000e+00  -7.8367820214223072e-01 -7.8349969087125149e-01 0.0000000000000000e+00  -7.5143676680805416e-01 -7.5123342814485805e-01 0.0000000000000000e+00  -5.0501235795452681e-01 -5.0470155965477825e-01 0.0000000000000000e+00  -4.7089183478217911e-01 -4.7002229920298855e-01 0.0000000000000000e+00  -3.5356182560643151e-01 -3.5345732937894581e-01 0.0000000000000000e+00  -2.3510214164785845e-01 -2.3508264852253713e-01 0.0000000000000000e+00  -9.6761948381986040e-01 -9.6946363649486145e-01 0.0000000000000000e+00  -9.3679764269534682e-01 -9.3705238542898361e-01 0.0000000000000000e+00  -9.4935839427001967e-01 -9.4947233598202652e-01 0.0000000000000000e+00  -3.0064932724589022e-01 -3.0084323016183367e-01 0.0000000000000000e+00  -2.7522414746204055e-01 -2.7520860930385399e-01 0.0000000000000000e+00