<?xml version="1.0"?>
<VTKFile type="UnstructuredGrid"  version="0.1"  >
<UnstructuredGrid>
<Piece  NumberOfPoints="1385" NumberOfCells="2640">
<Points>
<DataArray  type="Float64"  NumberOfComponents="3"  format="ascii">0 0 0  1 0 0  1 1 0  0 1 0  0.5 0 0  1 0.5 0  0.5 1 0  0 0.5 0  0.5 0.5 0  0 0.25 0  0.25 0 0  0.25 1 0  0 0.75 0  1 0.25 0  0.75 0 0  1 0.75 0  0.75 1 0  0.7083333333333333 0.2916666666666667 0  0.2916666666666666 0.7083333333333334 0  0.375 0.25 0  0.75 0.625 0  0.2569444444444444 0.4652777777777778 0  0.5366379310344828 0.7535919540229885 0  0.1875 0.1875 0  0.8125 0.8125 0  0.869047619047619 0.375 0  0.1450441919191919 0.6052714646464646 0  0.375 0.8690476190476191 0  0.5526960784313725 0.1825980392156862 0  0.8385416666666666 0.1614583333333334 0  0.1614583333333333 0.8385416666666667 0  0.6736111111111112 0.4652777777777778 0  0.1367521367521368 0.3477564102564102 0  0.6570970491253563 0.8648656830417855 0  0.5102479397556124 0.3386260301221938 0  0.3654513888888889 0.5737847222222222 0  0.6929750044954185 0.1362784921584263 0  0.388576102743835 0.411911725237599 0  0.6091269841269842 0.5942460317460317 0  0.875 0.6875 0  0.427278890279516 0.119889445139758 0  0.8544456845238095 0.5213913690476191 0  0.125 0 0  0 0.125 0  1 0.875 0  0.875 1 0  0.1280008648150532 0.4769292340226777 0  0.2695382451711197 0.3321750950221553 0  0.7031567235715964 0.7447810921428012 0  0.625 0 0  0.375 0 0  0.125 1 0  0.875 0 0  0 0.375 0  0 0.625 0  1 0.375 0  0.375 1 0  1 0.125 0  0 0.875 0  0.625 1 0  1 0.625 0  0.2979288363930608 0.1201429454643536 0  0.410919540229885 0.7484605911330049 0  0.5325041980395562 0.878905151526474 0  0.4831670727569156 0.6331060043826487 0  0.1735997378973042 0.7204747378973043 0  0.2534919507575758 0.5772372159090909 0  0.2633928571428572 0.8876488095238095 0  0.8199404761904761 0.2730654761904762 0  0.75830270586982 0.3919383189517417 0  0.5750282248382511 0.4237522353023667 0  0.6008360210023379 0.2794828358598495 0  0.08163442644334186 0.6821295860397322 0  0.08333333333333333 0.1875 0  0.2028380815996574 0.08844602719988583 0  0.2766521142611967 0.2325436572164097 0  0.90625 0.78125 0  0.890625 0.890625 0  0.7545696325008384 0.8973565441669461 0  0.5625 0.08086590340834317 0  0.09077380952380953 0.09077380952380952 0  0.4610923478694773 0.209034015149656 0  0.7542527598351648 0.5248380520595106 0  0.6459235536037465 0.3619913988405765 0  0.7560381768882634 0.20506142233852 0  0.07073252688172042 0.8125 0  0.0924753097241701 0.9078102849914793 0  0.9292674731182795 0.1875 0  0.9075246902758297 0.09218971500852073 0  0.8125 0.07073252688172045 0  0.2400955776842301 0.7869705776842302 0  0.9121050213379069 0.2781978201831695 0  0.7916878157143976 0.7239689078571988 0  0.9345238095238094 0.4375 0  0.4375 0.9345238095238095 0  0.3725616989755203 0.6651895248862173 0  0.06536271996350887 0.5625 0  0.9348362560379583 0.5625 0  0.456646798987055 0.8277247094351965 0  0.1875 0.9355758238725954 0  0.6169761231634859 0.6939779188977889 0  0.6226854751147515 0.7827911461419014 0  0.3305695598137626 0.7901697871282585 0  0.5865305325818898 0.5101085479043448 0  0.6622701297028378 0.2177663989757395 0  0.1354166666666667 0.2591702279202279 0  0 0.3125 0  0.2094429575680048 0.3936361846162499 0  0.836666296419157 0.607917407161686 0  0.6875 1 0  0.214261555450504 0.6492551722020035 0  0 0.4375 0  0.07731537126068377 0.40625 0  0.3427725432967068 0.4879566233699599 0  0.3550792513951871 0.3331953632609953 0  0.4462473953896857 0.2887834789342508 0  0.4747801464819794 0.417386052030127 0  0.8229836475148948 0.4443292349237342 0  0.7322605135514757 0.8199240278289671 0  0.6756431877205955 0.5468989748126787 0  0.1968419507215863 0.5194573482612496 0  0.3285590277777778 0.9345238095238095 0  0.8125 1 0  0.4198917601920009 0.5134893045331258 0  0.5232405503206691 0.2595791787880157 0  1 0.9375 0  0.1987510870015086 0.3025185951894431 0  0.5625 1 0  0.6005390654136388 0.9228110509230952 0  0.6411254848194414 0.07704872765442942 0  0.3357233162523242 0.1855113224530532 0  0.6730653396610877 0.6393887462324165 0  0.310966987234063 0.6240019765311626 0  0.7368737836204349 0.07457755202327881 0  0.6192316414418171 0.1485238406378594 0  0.5432429670607106 0.678552703844006 0  0.4754371679695679 0.7103946803120881 0  0.07501324890749672 0.3043839897335739 0  0.5358146975860403 0.5688321463205916 0  0.3115271739500156 0.3982137365971444 0  0.3625191397122174 0.0767854603650549 0  0.5024029442563831 0.1264128223758444 0  0.4375 0 0  0.4699946908887376 0.06379961173775725 0  0.9375 0.71875 0  0.9272105898044465 0.635671179608893 0  0.9375 1 0  0.6690971819568612 0.9331530898202766 0  0.1073454944778885 0.7499206387638554 0  0.8699082999280406 0.2232403652524313 0  0.5773118091863964 0.3548027349159383 0  0.1354166666666667 0.1428571428571428 0  0.3125 0 0  0.8241684193077341 0.9257452995055244 0  0.4352314948354036 0.3586940847489378 0  0.4351301473778832 0.5819726043539077 0  0.8073232928518163 0.3419398170341962 0  0.7775949246947366 0.1298519409204575 0  0.6875 0 0  0.7413513991851041 0.457933324954483 0  0.939453125 0.841796875 0  0.5630355154606987 0.8171875156478349 0  0.9345238095238095 0.3461466592368577 0  0.9375 0 0  1 0.0625 0  0.0625 1 0  0 0.9375 0  0.06552178593177167 0.4969053669623468 0  0.1424866619031703 0.4130277709291224 0  0.1275287182444726 0.5422946908002588 0  0.2637686595586339 0.06413888464529549 0  0.2524263535491086 0.1697437503243817 0  0.7367218397988525 0.6888573970660841 0  0.0625 0 0  0 0.0625 0  0.8463594539285995 0.7578283617857982 0  0.3128751192101563 0.2851997374369947 0  0.4015281788351144 0.1806421385113692 0  0.1910251795116588 0.4553332197174453 0  0.287797471442006 0.5222621440543902 0  0.3962628745986055 0.8097380085535307 0  0.3505895299554843 0.7304878890838692 0  0.5019151500495276 0.9356042615328103 0  0.9374389419410134 0.4999931039076005 0  0.3125 1 0  0.1875 1 0  1 0.5625 0  0.4375 1 0  1 0.3125 0  1 0.4375 0  0.8125 0 0  1 0.1875 0  0.5625 0 0  0.1875 0 0  0 0.1875 0  0 0.5625 0  0 0.6875 0  0 0.8125 0  1 0.6875 0  1 0.8125 0  0.8021696218581627 0.6612893947866073 0  0.06154922295426143 0.6239401126946708 0  0.9359375 0.9359375 0  0.4666158024849896 0.7691515918155014 0  0.2318201265217025 0.7064974250277525 0  0.1565954253579966 0.6635489312486841 0  0.1598132503680848 0.7787147500325552 0  0.3146529991605639 0.8510876378205265 0  0.1461873209418733 0.05982804528877814 0  0.06109554988524315 0.2446551776247686 0  0.8054950308560754 0.5564226538848541 0  0.470541749491976 0.8853316336952531 0  0.6948472567465137 0.4042308563372457 0  0.8802828472348889 0.4658893256343853 0  0.6788075634946739 0.7974194205806069 0  0.2155048659603867 0.2428201584940968 0  0.8131223143423806 0.2132171049028394 0  0.4330798005432235 0.6671274900735726 0  0.6015279126162613 0.2187368078743274 0  0.8061636571464289 0.8703766630361714 0  0.7008230445061776 0.3478568388444072 0  0.8638466246958771 0.3147095987735538 0  0.204801534004265 0.8789209409594009 0  0.2449006736431132 0.9424182882803838 0  0.7611268409371427 0.2643056884799992 0  0.7552800864046191 0.7678006649959446 0  0.5983639638906616 0.864113435029236 0  0.1956559506814437 0.577281203577426 0  0.3527670268164207 0.1320469097565204 0  0.7530364577483248 0.3262386077083089 0  0.4535919187979363 0.4690107087451527 0  0.8824869791666666 0.8336588541666666 0  0.8814453125 0.9451171875 0  0.5582987942628019 0.622421666543858 0  0.6817532446064828 0.6939001801354731 0  0.3830295138888889 0.9450968952922078 0  0.4140603937012541 0.05211333372716105 0  0.5535864501303013 0.3060591985391672 0  0.6560130086346878 0.2729726562211558 0  0.890203140221684 0.5948314305427268 0  0.7043857725999024 0.593980890020804 0  0.5105843922695152 0.8016828014338627 0  0.05365910753708378 0.7315110031682004 0  0.616904573672261 0.4621186633436136 0  0.5338511646455415 0.387875898899613 0  0.5231769258947843 0.4477682463140762 0  0.650302973237622 0.7370722302085519 0  0.3927483139621257 0.4662414504529014 0  0.8034595960585199 0.4972538342758211 0  0.7738337841682438 0.9496376207663251 0  0.7193737507158268 0.954685447650112 0  0.482525916480686 0.5528257169991676 0  0.2533501157346781 0.2809495420003238 0  0.3118487924482243 0.5702930126570319 0  0.6257598847669529 0.4104163315430518 0  0.1354166666666667 0.1955605158730158 0  0.04166666666666666 0.15625 0  0.3956448985530264 0.6174149462065157 0  0.8102897701818546 0.3938784238208349 0  0.2641154190013625 0.8344469561943118 0  0.642852220770013 0.5068794586563659 0  0.05271458179508221 0.355846947336007 0  0.7021551360070266 0.8921457280225779 0  0.5692125776683765 0.1328512638850284 0  0.5206162811937602 0.04865158770992991 0  0.6001838442201555 0.04540556991297563 0  0.2597716608242787 0.4118346398477178 0  0.4040584599473195 0.3179589136784675 0  0.1480337679295207 0.8941560631483065 0  0.1344356707112281 0.9466251177415842 0  0.7114696411829317 0.4983917389078826 0  0.7585704698442475 0.5751926345944629 0  0.2189131956390871 0.04022068508159698 0  0.2476935455192043 0.1123642267635843 0  0.185995005654517 0.1365524537205238 0  0.6223414373308711 0.643380839165121 0  0.5732602596637543 0.7190051747306219 0  0.268358222364537 0.6586246524467934 0  0.3265879848129173 0.2369791782191225 0  0.1267095595787346 0.7034787238999181 0  0.1115202922226038 0.6421997933884982 0  0.3128688392940203 0.07260997451790079 0  0.550724900485678 0.9253360991633187 0  0.7142608810459105 0.2384904702214873 0  0.7045869185243887 0.1871826897887429 0  0.890625 0.734375 0  0.953125 0.765625 0  0.2111812642821677 0.8286209446459138 0  0.9590293078204457 0.09375 0  0.953431269039847 0.1435719386408004 0  0.04097069217955424 0.90625 0  0.04656873096015299 0.8564280613591996 0  0.1078743037981226 0.8541621766048062 0  0.8921256962018773 0.1458378233951939 0  0.8521576979194619 0.1084496634207678 0  0.8655663982740958 0.05464346096571447 0  0.04005659640905543 0.09375 0  0.1001448316533417 0.04246776244228261 
[...]
<PointData  Vectors="f_8394-3"> 
<DataArray  type="Float64"  Name="f_8394-3"  NumberOfComponents="3" format="ascii">-1.0020832948042586e+00 -1.0020830314498868e+00 0.0000000000000000e+00  -5.4118779646721915e-01 -5.4124147115639221e-01 0.0000000000000000e+00  4.1694318845134493e-01 4.1694318845107275e-01 0.0000000000000000e+00  -5.4114421705817650e-01 -5.4123104668751487e-01 0.0000000000000000e+00  -8.7912226278111827e-01 -8.8180533453481846e-01 0.0000000000000000e+00  -6.8374428563411416e-02 -7.0837409433303258e-02 0.0000000000000000e+00  -7.0825060180949806e-02 -6.8527077243601131e-02 0.0000000000000000e+00  -8.8161684859576805e-01 -8.7902451941651372e-01 0.0000000000000000e+00  -5.4128314627502561e-01 -5.4134429329955902e-01 0.0000000000000000e+00  -9.7330315663162104e-01 -9.7071621110668971e-01 0.0000000000000000e+00  -9.7068186812321644e-01 -9.7338835913319910e-01 0.0000000000000000e+00  -3.1587191929523772e-01 -3.1344919468874610e-01 0.0000000000000000e+00  -7.3515938722541596e-01 -7.3300258923715000e-01 0.0000000000000000e+00  -3.1361040116100825e-01 -3.1586199121151082e-01 0.0000000000000000e+00  -7.3301505846152426e-01 -7.3497970919926336e-01 0.0000000000000000e+00  1.8135223374432252e-01 1.7854405946313301e-01 0.0000000000000000e+00  1.7856507576379166e-01 1.8132777319171600e-01 0.0000000000000000e+00  -5.4129258783782053e-01 -5.4138110221029789e-01 0.0000000000000000e+00  -5.4134366065883011e-01 -5.4120731793559140e-01 0.0000000000000000e+00  -8.1238539118058140e-01 -8.1246359692658743e-01 0.0000000000000000e+00  -1.9485176806670257e-01 -1.9510148809854555e-01 0.0000000000000000e+00  -7.5172032008263878e-01 -7.5173058888085853e-01 0.0000000000000000e+00  -2.7744702528902104e-01 -2.7727675728167811e-01 0.0000000000000000e+00  -9.3213288784327730e-01 -9.3217705580885968e-01 0.0000000000000000e+00  5.4137778691765677e-02 5.4367343040145386e-02 0.0000000000000000e+00  -3.2151329715320637e-01 -3.2165390942763716e-01 0.0000000000000000e+00  -7.3289606376075278e-01 -7.3281134633109057e-01 0.0000000000000000e+00  -3.2157650854110914e-01 -3.2147492156498358e-01 0.0000000000000000e+00  -7.4299678092348231e-01 -7.4291463920527923e-01 0.0000000000000000e+00  -5.4129612437494135e-01 -5.4133568750597094e-01 0.0000000000000000e+00  -5.4142624963923525e-01 -5.4125117858298577e-01 0.0000000000000000e+00  -4.1940732934856262e-01 -4.1937154649216835e-01 0.0000000000000000e+00  -8.8657027729469950e-01 -8.8650093470327962e-01 0.0000000000000000e+00  -4.8931405300863630e-02 -4.8914009711430555e-02 0.0000000000000000e+00  -6.6197494537172896e-01 -6.6204420006192299e-01 0.0000000000000000e+00  -5.9145367952815819e-01 -5.9156384321086319e-01 0.0000000000000000e+00  -6.7661012298596468e-01 -6.7679027202282693e-01 0.0000000000000000e+00  -6.9753333669988460e-01 -6.9767723514450419e-01 0.0000000000000000e+00  -3.5982965360104274e-01 -3.5993669069701217e-01 0.0000000000000000e+00  -8.1925744777094876e-03 -8.4626498469987828e-03 0.0000000000000000e+00  -8.5566384185546562e-01 -8.5554706507771672e-01 0.0000000000000000e+00  -1.9398352336893404e-01 -1.9401688974661976e-01 0.0000000000000000e+00  -9.9394809930046568e-01 -9.9716671348470665e-01 0.0000000000000000e+00  -9.9724864810335556e-01 -9.9398499707213817e-01 0.0000000000000000e+00  3.0325787566169893e-01 3.0004568457139935e-01 0.0000000000000000e+00  3.0005989662892346e-01 3.0311605907416306e-01 0.0000000000000000e+00  -8.2416542690856509e-01 -8.2402314275905575e-01 0.0000000000000000e+00  -8.2584141970746927e-01 -8.2589566606321940e-01 0.0000000000000000e+00  -1.2290321829297107e-01 -1.2269485326309156e-01 0.0000000000000000e+00  -8.1248273333757903e-01 -8.1497611303451356e-01 0.0000000000000000e+00  -9.3207323894936756e-01 -9.3475832244640022e-01 0.0000000000000000e+00  -4.3194872001590034e-01 -4.2987447662551731e-01 0.0000000000000000e+00  -6.4212196408937072e-01 -6.4456570869159613e-01 0.0000000000000000e+00  -9.3477424502533246e-01 -9.3219235707481907e-01 0.0000000000000000e+00  -8.1500774840510359e-01 -8.1244965022471338e-01 0.0000000000000000e+00  -1.9245207774636686e-01 -1.9490988462555200e-01 0.0000000000000000e+00  -1.9487944511025909e-01 -1.9247941229420534e-01 0.0000000000000000e+00  -4.3000514258462491e-01 -4.3190615100881496e-01 0.0000000000000000e+00  -6.4441278660037538e-01 -6.4211368989835216e-01 0.0000000000000000e+00  5.4247916798523102e-02 5.6840163089839524e-02 0.0000000000000000e+00  5.6646686546259456e-02 5.4265916518675558e-02 0.0000000000000000e+00  -9.1551416174701972e-01 -9.1572006726319888e-01 0.0000000000000000e+00  -4.0064457967014344e-01 -4.0051620002115373e-01 0.0000000000000000e+00  -1.5899314693139280e-01 -1.5895489616360273e-01 0.0000000000000000e+00  -4.3994581553559342e-01 -4.3991989626816475e-01 0.0000000000000000e+00  -6.2742561357271320e-01 -6.2733847058002656e-01 0.0000000000000000e+00  -6.7559894641574381e-01 -6.7557223926968002e-01 0.0000000000000000e+00  -4.0820371827650115e-01 -4.0824989926529681e-01 0.0000000000000000e+00  -4.6067861340267768e-01 -4.6078643962457522e-01 0.0000000000000000e+00  -4.0895460751059209e-01 -4.0912289777596217e-01 0.0000000000000000e+00  -5.4234215441870937e-01 -5.4234741257543218e-01 0.0000000000000000e+00  -6.3820304012029039e-01 -6.3808995270226943e-01 0.0000000000000000e+00  -7.2390930853102886e-01 -7.2353591671055317e-01 0.0000000000000000e+00  -9.6571543472477073e-01 -9.6486590061249111e-01 0.0000000000000000e+00  -9.5947718636827850e-01 -9.5999470215223981e-01 0.0000000000000000e+00  -8.7476970699779810e-01 -8.7466158037422936e-01 0.0000000000000000e+00  1.1695570598472170e-01 1.1638191620628635e-01 0.0000000000000000e+00  2.0914029412492924e-01 2.0931668413991897e-01 0.0000000000000000e+00  8.1094197730628079e-02 8.1294796022172849e-02 0.0000000000000000e+00  -8.0159091208795608e-01 -8.0190422764122615e-01 0.0000000000000000e+00  -9.8530078461301185e-01 -9.8535702578606466e-01 0.0000000000000000e+00  -7.8522741037162391e-01 -7.8527795904510345e-01 0.0000000000000000e+00  -2.8814467170667457e-01 -2.8799972501861754e-01 0.0000000000000000e+00  -5.3463609008673862e-01 -5.3462062124731502e-01 0.0000000000000000e+00  -5.7365506408689049e-01 -5.7366189012170543e-01 0.0000000000000000e+00  -6.3648814178947266e-01 -6.3583468899477014e-01 0.0000000000000000e+00  -5.4123279077616804e-01 -5.4067596400115658e-01 0.0000000000000000e+00  -4.3870572572145866e-01 -4.3944047259494645e-01 0.0000000000000000e+00  -5.4105266232775262e-01 -5.4170014420180779e-01 0.0000000000000000e+00  -6.3598956264722140e-01 -6.3633348925402755e-01 0.0000000000000000e+00  -5.1826365160694932e-01 -5.1845072007857151e-01 0.0000000000000000e+00  -3.7170003201240231e-01 -3.7214554002782757e-01 0.0000000000000000e+00  -5.5127822477357952e-02 -5.5304950246412465e-02 0.0000000000000000e+00  -1.9701139529712380e-01 -1.9784883232618997e-01 0.0000000000000000e+00  -1.9784705235252434e-01 -1.9698849395236509e-01 0.0000000000000000e+00  -5.0904764387895640e-01 -5.0904280750326003e-01 0.0000000000000000e+00  -8.1147631674624288e-01 -8.1080563214366430e-01 0.0000000000000000e+00  -7.2772491912189957e-02 -7.3435345141202465e-02 0.0000000000000000e+00  -2.8302589343586776e-01 -2.8309192309851061e-01 0.0000000000000000e+00  -4.3383359955860284e-01 -4.3281902213641193e-01 0.0000000000000000e+00  -2.5742574131736429e-01 -2.5740301519700176e-01 0.0000000000000000e+00  -1.6497455938994046e-01 -1.6480329921708828e-01 0.0000000000000000e+00  -4.3588548419727124e-01 -4.3580167838383310e-01 0.0000000000000000e+00  -4.5748014720073232e-01 -4.5743580471490980e-01 0.0000000000000000e+00  -6.3821269243524348e-01 -6.3829444098653287e-01 0.0000000000000000e+00  -9.2479011300328895e-01 -9.2466963669377999e-01 0.0000000000000000e+00  -9.5566574662922865e-01 -9.5314485149445083e-01 0.0000000000000000e+00  -8.2508712327303635e-01 -8.2507251138549342e-01 0.0000000000000000e+00  -1.2601248991471342e-01 -1.2616845847710736e-01 0.0000000000000000e+00  1.1663467253154791e-01 1.1931898157989604e-01 0.0000000000000000e+00  -6.5097615424369581e-01 -6.5086077203537729e-01 0.0000000000000000e+00  -9.0960276620118241e-01 -9.0749088137269418e-01 0.0000000000000000e+00  -8.8749204779203650e-01 -8.8687123350154917e-01 0.0000000000000000e+00  -6.7566010781921226e-01 -6.7572311257094109e-01 0.0000000000000000e+00  -7.7354631070939628e-01 -7.7376597272397585e-01 0.0000000000000000e+00  -7.4318548131931905e-01 -7.4320046099389514e-01 0.0000000000000000e+00  -6.2896345972625667e-01 -6.2896167372789713e-01 0.0000000000000000e+00  -2.9936723657173447e-01 -2.9946368129967216e-01 0.0000000000000000e+00  -1.8684567790291949e-02 -1.8534785225718286e-02 0.0000000000000000e+00  -3.4187516189091932e-01 -3.4182747735794905e-01 0.0000000000000000e+00  -7.5565749805368099e-01 -7.5566943808153497e-01 0.0000000000000000e+00  -3.0341595382299180e-01 -3.0273183844826718e-01 0.0000000000000000e+00  2.3980407899659453e-01 2.4272541420233129e-01 0.0000000000000000e+00  -5.9623056221434845e-01 -5.9602551246838575e-01 0.0000000000000000e+00  -7.1011205879340644e-01 -7.1016127863535194e-01 0.0000000000000000e+00  3.6196386607397829e-01 3.5917902083826120e-01 0.0000000000000000e+00  -8.7870411619288658e-01 -8.7866729615405326e-01 0.0000000000000000e+00  -8.3127035844558876e-03 -5.8417015432977171e-03 0.0000000000000000e+00  -4.7666343634381499e-02 -4.6984757470485597e-02 0.0000000000000000e+00  -7.5423030383911660e-01 -7.5494191116404696e-01 0.0000000000000000e+00  -8.6870326520160213e-01 -8.6877442993461673e-01 0.0000000000000000e+00  -2.5599646677127541e-01 -2.5611495894907627e-01 0.0000000000000000e+00  -5.9508243614363310e-01 -5.9501792020875710e-01 0.0000000000000000e+00  -6.8970943959631315e-01 -6.9030787919193237e-01 0.0000000000000000e+00  -7.2070118101732328e-01 -7.2074551870827985e-01 0.0000000000000000e+00  -3.4261723275915512e-01 -3.4266178305713557e-01 0.0000000000000000e+00  -3.7640889206815425e-01 -3.7618306593789030e-01 0.0000000000000000e+00  -9.3108452286915577e-01 -9.3065849178419502e-01 0.0000000000000000e+00  -4.5027421917598420e-01 -4.5030797394414346e-01 0.0000000000000000e+00  -7.5991079626823488e-01 -7.5990230343816245e-01 0.0000000000000000e+00  -9.0666328479968683e-01 -9.0714490817955684e-01 0.0000000000000000e+00  -8.1020625355428089e-01 -8.1018074984792277e-01 0.0000000000000000e+00  -9.0744026727196170e-01 -9.1010633902145710e-01 0.0000000000000000e+00  -8.6229170748358186e-01 -8.6338965859273198e-01 0.0000000000000000e+00  8.6461278201377237e-02 8.5383725031081922e-02 0.0000000000000000e+00  -7.3058840569789410e-03 -8.0381069808214967e-03 0.0000000000000000e+00  3.5923598247657335e-01 3.6196870627103495e-01 0.0000000000000000e+00  3.1496468731920288e-02 3.2333561179529610e-02 0.0000000000000000e+00  -6.5565081067949382e-01 -6.5584759403312276e-01 0.0000000000000000e+00  -4.6031013695353773e-01 -4.6053881824655846e-01 0.0000000000000000e+00  -5.9726636688816215e-01 -5.9732328705264115e-01 0.0000000000000000e+00  -9.6305290600762983e-01 -9.6319371732471337e-01 0.0000000000000000e+00  -9.5325888097851441e-01 -9.5598205525256652e-01 0.0000000000000000e+00  1.7839832202066319e-01 1.7912574922739113e-01 0.0000000000000000e+00  -7.0229248764401464e-01 -7.0226941119813246e-01 0.0000000000000000e+00  -5.2678376061484755e-01 -5.2682231573612981e-01 0.0000000000000000e+00  -4.0993040873342002e-01 -4.0999917292429466e-01 0.0000000000000000e+00  -6.1692249211680605e-01 -6.1694463251892073e-01 0.0000000000000000e+00  -7.7421436420627476e-01 -7.7660406167892349e-01 0.0000000000000000e+00  -3.6371937074953253e-01 -3.6378049392014433e-01 0.0000000000000000e+00  2.1045223093872167e-01 2.0927001748034590e-01 0.0000000000000000e+00  -1.8986132134415262e-01 -1.8971093723137358e-01 0.0000000000000000e+00  -2.8583205412380136e-01 -2.8660762636345394e-01 0.0000000000000000e+00  -5.9282475562488668e-01 -5.9446580347108657e-01 0.0000000000000000e+00  -4.8610667859665291e-01 -4.8755215035512911e-01 0.0000000000000000e+00  -4.8750052421209061e-01 -4.8594931044283285e-01 0.0000000000000000e+00  -5.9450917243208612e-01 -5.9284901874548401e-01 0.0000000000000000e+00  -8.4828163636146525e-01 -8.4771544960727430e-01 0.0000000000000000e+00  -8.5120406151072747e-01 -8.5132198950118099e-01 0.0000000000000000e+00  -7.8534247639549837e-01 -7.8546985890155296e-01 0.0000000000000000e+00  -9.4847713334122197e-01 -9.4939320636172175e-01 0.0000000000000000e+00  -9.1399583703044784e-01 -9.1396557526268651e-01 0.0000000000000000e+00  -1.4497554284995046e-01 -1.4512880341915452e-01 0.0000000000000000e+00  -9.9982358702989305e-01 -1.0030092275238429e+00 0.0000000000000000e+00  -1.0030280021455837e+00 -9.9980059404399813e-01 0.0000000000000000e+00  3.3513149857150391e-02 3.3271890893908231e-02 0.0000000000000000e+00  -8.2788767887830583e-01 -8.2807210507885076e-01 0.0000000000000000e+00  -8.3684184771587933e-01 -8.3685755035974974e-01 0.0000000000000000e+00  -7.9985033350852985e-01 -7.9964883847763712e-01 0.0000000000000000e+00  -6.9068715610679554e-01 -6.9075362159731979e-01 0.0000000000000000e+00  -3.5739996072308422e-01 -3.5746166061628121e-01 0.0000000000000000e+00  -4.7130503803433710e-01 -4.7118416960177439e-01 0.0000000000000000e+00  -1.3314592912498496e-01 -1.3223536498222641e-01 0.0000000000000000e+00  -1.3233555463176760e-01 -1.3325430906961228e-01 0.0000000000000000e+00  -2.5585743186794940e-01 -2.5342199352169326e-01 0.0000000000000000e+00  -3.7465052052019082e-01 -3.7236942375730775e-01 0.0000000000000000e+00  -5.9139818412276453e-03 -8.3518310449619618e-03 0.0000000000000000e+00  -1.3312086927034553e-01 -1.3081523646212245e-01 0.0000000000000000e+00  -2.5350869501877404e-01 -2.5586836854036843e-01 0.0000000000000000e+00  -1.3070485073052590e-01 -1.3314962240413292e-01 0.0000000000000000e+00  -6.8887760760276173e-01 -6.9133464476647721e-01 0.0000000000000000e+00  -3.7251131526808712e-01 -3.7461605447708846e-01 0.0000000000000000e+00  -8.4737425674685385e-01 -8.4992132702778767e-01 0.0000000000000000e+00  -9.8427238249922344e-01 -9.8706185650509604e-01 0.0000000000000000e+00  -9.8729220853165522e-01 -9.8423493900179237e-01 0.0000000000000000e+00  -8.5020087735251071e-01 -8.4754917028738597e-01 0.0000000000000000e+00  -7.7628053996289204e-01 -7.7424535893753188e-01 0.0000000000000000e+00  -6.9133024601511450e-01 -6.8896995516692283e-01 0.0000000000000000e+00  1.1915557875345460e-01 1.1663078931241727e-01 0.0000000000000000e+00  2.4277954702241378e-01 2.3984876881769152e-01 0.0000000000000000e+00  -1.0717741996929694e-01 -1.0752010942189329e-01 0.0000000000000000e+00  -7.7643127385626898e-01 -7.7530547469340516e-01 0.0000000000000000e+00  2.9803365767851780e-01 2.9802069679296933e-01 0.0000000000000000e+00  -3.2953719351355093e-01 -3.2928977069567095e-01 0.0000000000000000e+00  -5.9226433664267286e-01 -5.9209598766413263e-01 0.0000000000000000e+00  -6.8341381609629526e-01 -6.8332857425693072e-01 0.0000000000000000e+00  -5.9212957405144562e-01 -5.9222222670148161e-01 0.0000000000000000e+00  -3.9478739801187429e-01 -3.9474310207237906e-01 0.0000000000000000e+00  -9.8020810377426248e-01 -9.8182442760468203e-01 0.0000000000000000e+00  -9.5641679491178611e-01 -9.5511309808270650e-01 0.0000000000000000e+00  -2.0767882236623092e-01 -2.0766344777644380e-01 0.0000000000000000e+00  -2.1368713437665349e-01 -2.1355478452420462e-01 0.0000000000000000e+00  -4.5528501369095586e-01 -4.5528617616589573e-01 0.0000000000000000e+00  -2.2302913459881291e-01 -2.2314379268831433e-01 0.0000000000000000e+00  -9.4718341159886255e-02 -9.4517603238260695e-02 0.0000000000000000e+00  -8.9841906448583164e-01 -8.9844789547076431e-01 0.0000000000000000e+00  -5.1889903532646686e-01 -5.1883096083582303e-01 0.0000000000000000e+00  -4.5429992442484385e-01 -4.5425303922389071e-01 0.0000000000000000e+00  -6.8327520904624028e-01 -6.8336437555742857e-01 0.0000000000000000e+00  1.0563174269117630e-01 1.0573539647032484e-01 0.0000000000000000e+00  -4.9962689485899653e-01 -4.9971436960929128e-01 0.0000000000000000e+00  -3.8289334710846079e-01 -3.8305714522824941e-01 0.0000000000000000e+00  -4.6895140869442625e-01 -4.6879297032626183e-01 0.0000000000000000e+00  -3.7491444167381827e-01 -3.7375682121408593e-01 0.0000000000000000e+00  -5.1971778567719162e-01 -5.1973022951901304e-01 0.0000000000000000e+00  -4.7809714123366140e-02 -4.7688591317502006e-02 0.0000000000000000e+00  -1.0843096022130583e-01 -1.0829208580245976e-01 0.0000000000000000e+00  -7.1730255449788416e-01 -7.1713610954749019e-01 0.0000000000000000e+00  -8.8619215121640660e-01 -8.8632737175469423e-01 0.0000000000000000e+00  -4.7291020008571510e-01 -4.7292247087267403e-01 0.0000000000000000e+00  -6.0478319552025905e-01 -6.0485319073620236e-01 0.0000000000000000e+00  1.4507875744999726e-01 1.4513343471270415e-01 0.0000000000000000e+00  2.5326518342409732e-01 2.5485950398165480e-01 0.0000000000000000e+00  -3.8099453281348478e-01 -3.8107188140147596e-01 0.0000000000000000e+00  -1.9441244562716867e-01 -1.9430522400669700e-01 0.0000000000000000e+00  -2.4069678578195863e-01 -2.3969517035960006e-01 0.0000000000000000e+00  -8.9515284227658354e-01 -8.9630078846007577e-01 0.0000000000000000e+00  -6.5396599860110971e-01 -6.5396198061765320e-01 0.0000000000000000e+00  -5.9967684883536865e-01 -5.9973870394686157e-01 0.0000000000000000e+00  -8.5694848918284244e-02 -8.5819908045246765e-02 0.0000000000000000e+00  -2.6962634497272775e-01 -2.6973428133680533e-01 0.0000000000000000e+00  -2.5614749216381394e-01 -2.5603886713666030e-01 0.0000000000000000e+00  -7.0969143197808005e-01 -7.0865641688121173e-01 0.0000000000000000e+00  -4.7318895436626990e-01 -4.7304119591984950e-01 0.0000000000000000e+00  -6.0561195018351077e-01 -6.0562088869122410e-01 0.0000000000000000e+00  -5.6559330979511790e-01 -5.6559898757999993e-01 0.0000000000000000e+00  -1.8284096887157836e-01 -1.8269266209998561e-01 0.0000000000000000e+00  -6.5439057133390310e-01 -6.5445366307064157e-01 0.0000000000000000e+00  -2.6720152721987561e-01 -2.6726932938001352e-01 0.0000000000000000e+00  1.5223692644528106e-01 1.5384183765674286e-01 0.0000000000000000e+00  1.0323003230366609e-01 1.0489005567308293e-01 0.0000000000000000e+00  -5.1116463208609564e-01 -5.1118632372954964e-01 0.0000000000000000e+00  -8.6227297560739913e-01 -8.6226866099594068e-01 0.0000000000000000e+00  -6.3667756126399755e-01 -6.3665489777625617e-01 0.0000000000000000e+00  -5.1047590347635297e-01 -5.1053761193376856e-01 0.0000000000000000e+00  -9.4746274158188959e-01 -9.4725778344133116e-01 0.0000000000000000e+00  -9.8422927019991335e-01 -9.8191912245903590e-01 0.0000000000000000e+00  -5.3020733886905691e-01 -5.3035919305463974e-01 0.0000000000000000e+00  -3.5915155689319728e-01 -3.5922316313007957e-01 0.0000000000000000e+00  -4.5564887256954478e-01 -4.5576509340417926e-01 0.0000000000000000e+00  -4.0957032742718424e-01 -4.0942184484171090e-01 0.0000000000000000e+00  -9.2058288438351676e-01 -9.1946222095120234e-01 0.0000000000000000e+00  2.3495140000575798e-02 2.3610762215210739e-02 0.0000000000000000e+00  -7.6489381340811669e-01 -7.6493937839655279e-01 0.0000000000000000e+00  -8.4365999603875597e-01 -8.4530553934360075e-01 0.0000000000000000e+00  -8.0011078493713317e-01 -8.0176506577816398e-01 0.0000000000000000e+00  -7.8431941007006278e-01 -7.8417996983236948e-01 0.0000000000000000e+00  -7.5189825056265169e-01 -7.5176203064015679e-01 0.0000000000000000e+00  -5.0534891092785161e-01 -5.0501390362914467e-01 0.0000000000000000e+00  -4.7123594899792942e-01 -4.7010957936262010e-01 0.0000000000000000e+00  -3.5382651889914341e-01 -3.5371870121141080e-01 0.0000000000000000e+00  -2.3523672231611259e-01 -2.3526666601840474e-01 0.0000000000000000e+00  -9.6827409661710095e-01 -9.7015941304588393e-01 0.0000000000000000e+00  -9.3746987981490926e-01 -9.3778359438722314e-01 0.0000000000000000e+00  -9.4999851708355965e-01 -9.5016125308515065e-01 0.0000000000000000e+00  -3.0093655886997295e-01 -3.0100836195119213e-01 0.0000000000000000e+00  -2.7543563638218210e-01 -2.7539984040545740e-01 0.0000000000000000e+00