<?xml version="1.0"?>
<VTKFile type="UnstructuredGrid"  version="0.1"  >
<UnstructuredGrid>
<Piece  NumberOfPoints="1385" NumberOfCells="2640">
<Points>
<DataArray  type="Float64"  NumberOfComponents="3"  format="ascii">0 0 0  1 0 0  1 1 0  0 1 0  0.5 0 0  1 0.5 0  0.5 1 0  0 0.5 0  0.5 0.5 0  0 0.25 0  0.25 0 0  0.25 1 0  0 0.75 0  1 0.25 0  0.75 0 0  1 0.75 0  0.75 1 0  0.7083333333333333 0.2916666666666667 0  0.2916666666666666 0.7083333333333334 0  0.375 0.25 0  0.75 0.625 0  0.2569444444444444 0.4652777777777778 0  0.5366379310344828 0.7535919540229885 0  0.1875 0.1875 0  0.8125 0.8125 0  0.869047619047619 0.375 0  0.1450441919191919 0.6052714646464646 0  0.375 0.8690476190476191 0  0.5526960784313725 0.1825980392156862 0  0.8385416666666666 0.1614583333333334 0  0.1614583333333333 0.8385416666666667 0  0.6736111111111112 0.4652777777777778 0  0.1367521367521368 0.3477564102564102 0  0.6570970491253563 0.8648656830417855 0  0.5102479397556124 0.3386260301221938 0  0.3654513888888889 0.5737847222222222 0  0.6929750044954185 0.1362784921584263 0  0.388576102743835 0.411911725237599 0  0.6091269841269842 0.5942460317460317 0  0.875 0.6875 0  0.427278890279516 0.119889445139758 0  0.8544456845238095 0.5213913690476191 0  0.125 0 0  0 0.125 0  1 0.875 0  0.875 1 0  0.1280008648150532 0.4769292340226777 0  0.2695382451711197 0.3321750950221553 0  0.7031567235715964 0.7447810921428012 0  0.625 0 0  0.375 0 0  0.125 1 0  0.875 0 0  0 0.375 0  0 0.625 0  1 0.375 0  0.375 1 0  1 0.125 0  0 0.875 0  0.625 1 0  1 0.625 0  0.2979288363930608 0.1201429454643536 0  0.410919540229885 0.7484605911330049 0  0.5325041980395562 0.878905151526474 0  0.4831670727569156 0.6331060043826487 0  0.1735997378973042 0.7204747378973043 0  0.2534919507575758 0.5772372159090909 0  0.2633928571428572 0.8876488095238095 0  0.8199404761904761 0.2730654761904762 0  0.75830270586982 0.3919383189517417 0  0.5750282248382511 0.4237522353023667 0  0.6008360210023379 0.2794828358598495 0  0.08163442644334186 0.6821295860397322 0  0.08333333333333333 0.1875 0  0.2028380815996574 0.08844602719988583 0  0.2766521142611967 0.2325436572164097 0  0.90625 0.78125 0  0.890625 0.890625 0  0.7545696325008384 0.8973565441669461 0  0.5625 0.08086590340834317 0  0.09077380952380953 0.09077380952380952 0  0.4610923478694773 0.209034015149656 0  0.7542527598351648 0.5248380520595106 0  0.6459235536037465 0.3619913988405765 0  0.7560381768882634 0.20506142233852 0  0.07073252688172042 0.8125 0  0.0924753097241701 0.9078102849914793 0  0.9292674731182795 0.1875 0  0.9075246902758297 0.09218971500852073 0  0.8125 0.07073252688172045 0  0.2400955776842301 0.7869705776842302 0  0.9121050213379069 0.2781978201831695 0  0.7916878157143976 0.7239689078571988 0  0.9345238095238094 0.4375 0  0.4375 0.9345238095238095 0  0.3725616989755203 0.6651895248862173 0  0.06536271996350887 0.5625 0  0.9348362560379583 0.5625 0  0.456646798987055 0.8277247094351965 0  0.1875 0.9355758238725954 0  0.6169761231634859 0.6939779188977889 0  0.6226854751147515 0.7827911461419014 0  0.3305695598137626 0.7901697871282585 0  0.5865305325818898 0.5101085479043448 0  0.6622701297028378 0.2177663989757395 0  0.1354166666666667 0.2591702279202279 0  0 0.3125 0  0.2094429575680048 0.3936361846162499 0  0.836666296419157 0.607917407161686 0  0.6875 1 0  0.214261555450504 0.6492551722020035 0  0 0.4375 0  0.07731537126068377 0.40625 0  0.3427725432967068 0.4879566233699599 0  0.3550792513951871 0.3331953632609953 0  0.4462473953896857 0.2887834789342508 0  0.4747801464819794 0.417386052030127 0  0.8229836475148948 0.4443292349237342 0  0.7322605135514757 0.8199240278289671 0  0.6756431877205955 0.5468989748126787 0  0.1968419507215863 0.5194573482612496 0  0.3285590277777778 0.9345238095238095 0  0.8125 1 0  0.4198917601920009 0.5134893045331258 0  0.5232405503206691 0.2595791787880157 0  1 0.9375 0  0.1987510870015086 0.3025185951894431 0  0.5625 1 0  0.6005390654136388 0.9228110509230952 0  0.6411254848194414 0.07704872765442942 0  0.3357233162523242 0.1855113224530532 0  0.6730653396610877 0.6393887462324165 0  0.310966987234063 0.6240019765311626 0  0.7368737836204349 0.07457755202327881 0  0.6192316414418171 0.1485238406378594 0  0.5432429670607106 0.678552703844006 0  0.4754371679695679 0.7103946803120881 0  0.07501324890749672 0.3043839897335739 0  0.5358146975860403 0.5688321463205916 0  0.3115271739500156 0.3982137365971444 0  0.3625191397122174 0.0767854603650549 0  0.5024029442563831 0.1264128223758444 0  0.4375 0 0  0.4699946908887376 0.06379961173775725 0  0.9375 0.71875 0  0.9272105898044465 0.635671179608893 0  0.9375 1 0  0.6690971819568612 0.9331530898202766 0  0.1073454944778885 0.7499206387638554 0  0.8699082999280406 0.2232403652524313 0  0.5773118091863964 0.3548027349159383 0  0.1354166666666667 0.1428571428571428 0  0.3125 0 0  0.8241684193077341 0.9257452995055244 0  0.4352314948354036 0.3586940847489378 0  0.4351301473778832 0.5819726043539077 0  0.8073232928518163 0.3419398170341962 0  0.7775949246947366 0.1298519409204575 0  0.6875 0 0  0.7413513991851041 0.457933324954483 0  0.939453125 0.841796875 0  0.5630355154606987 0.8171875156478349 0  0.9345238095238095 0.3461466592368577 0  0.9375 0 0  1 0.0625 0  0.0625 1 0  0 0.9375 0  0.06552178593177167 0.4969053669623468 0  0.1424866619031703 0.4130277709291224 0  0.1275287182444726 0.5422946908002588 0  0.2637686595586339 0.06413888464529549 0  0.2524263535491086 0.1697437503243817 0  0.7367218397988525 0.6888573970660841 0  0.0625 0 0  0 0.0625 0  0.8463594539285995 0.7578283617857982 0  0.3128751192101563 0.2851997374369947 0  0.4015281788351144 0.1806421385113692 0  0.1910251795116588 0.4553332197174453 0  0.287797471442006 0.5222621440543902 0  0.3962628745986055 0.8097380085535307 0  0.3505895299554843 0.7304878890838692 0  0.5019151500495276 0.9356042615328103 0  0.9374389419410134 0.4999931039076005 0  0.3125 1 0  0.1875 1 0  1 0.5625 0  0.4375 1 0  1 0.3125 0  1 0.4375 0  0.8125 0 0  1 0.1875 0  0.5625 0 0  0.1875 0 0  0 0.1875 0  0 0.5625 0  0 0.6875 0  0 0.8125 0  1 0.6875 0  1 0.8125 0  0.8021696218581627 0.6612893947866073 0  0.06154922295426143 0.6239401126946708 0  0.9359375 0.9359375 0  0.4666158024849896 0.7691515918155014 0  0.2318201265217025 0.7064974250277525 0  0.1565954253579966 0.6635489312486841 0  0.1598132503680848 0.7787147500325552 0  0.3146529991605639 0.8510876378205265 0  0.1461873209418733 0.05982804528877814 0  0.06109554988524315 0.2446551776247686 0  0.8054950308560754 0.5564226538848541 0  0.470541749491976 0.8853316336952531 0  0.6948472567465137 0.4042308563372457 0  0.8802828472348889 0.4658893256343853 0  0.6788075634946739 0.7974194205806069 0  0.2155048659603867 0.2428201584940968 0  0.8131223143423806 0.2132171049028394 0  0.4330798005432235 0.6671274900735726 0  0.6015279126162613 0.2187368078743274 0  0.8061636571464289 0.8703766630361714 0  0.7008230445061776 0.3478568388444072 0  0.8638466246958771 0.3147095987735538 0  0.204801534004265 0.8789209409594009 0  0.2449006736431132 0.9424182882803838 0  0.7611268409371427 0.2643056884799992 0  0.7552800864046191 0.7678006649959446 0  0.5983639638906616 0.864113435029236 0  0.1956559506814437 0.577281203577426 0  0.3527670268164207 0.1320469097565204 0  0.7530364577483248 0.3262386077083089 0  0.4535919187979363 0.4690107087451527 0  0.8824869791666666 0.8336588541666666 0  0.8814453125 0.9451171875 0  0.5582987942628019 0.622421666543858 0  0.6817532446064828 0.6939001801354731 0  0.3830295138888889 0.9450968952922078 0  0.4140603937012541 0.05211333372716105 0  0.5535864501303013 0.3060591985391672 0  0.6560130086346878 0.2729726562211558 0  0.890203140221684 0.5948314305427268 0  0.7043857725999024 0.593980890020804 0  0.5105843922695152 0.8016828014338627 0  0.05365910753708378 0.7315110031682004 0  0.616904573672261 0.4621186633436136 0  0.5338511646455415 0.387875898899613 0  0.5231769258947843 0.4477682463140762 0  0.650302973237622 0.7370722302085519 0  0.3927483139621257 0.4662414504529014 0  0.8034595960585199 0.4972538342758211 0  0.7738337841682438 0.9496376207663251 0  0.7193737507158268 0.954685447650112 0  0.482525916480686 0.5528257169991676 0  0.2533501157346781 0.2809495420003238 0  0.3118487924482243 0.5702930126570319 0  0.6257598847669529 0.4104163315430518 0  0.1354166666666667 0.1955605158730158 0  0.04166666666666666 0.15625 0  0.3956448985530264 0.6174149462065157 0  0.8102897701818546 0.3938784238208349 0  0.2641154190013625 0.8344469561943118 0  0.642852220770013 0.5068794586563659 0  0.05271458179508221 0.355846947336007 0  0.7021551360070266 0.8921457280225779 0  0.5692125776683765 0.1328512638850284 0  0.5206162811937602 0.04865158770992991 0  0.6001838442201555 0.04540556991297563 0  0.2597716608242787 0.4118346398477178 0  0.4040584599473195 0.3179589136784675 0  0.1480337679295207 0.8941560631483065 0  0.1344356707112281 0.9466251177415842 0  0.7114696411829317 0.4983917389078826 0  0.7585704698442475 0.5751926345944629 0  0.2189131956390871 0.04022068508159698 0  0.2476935455192043 0.1123642267635843 0  0.185995005654517 0.1365524537205238 0  0.6223414373308711 0.643380839165121 0  0.5732602596637543 0.7190051747306219 0  0.268358222364537 0.6586246524467934 0  0.3265879848129173 0.2369791782191225 0  0.1267095595787346 0.7034787238999181 0  0.1115202922226038 0.6421997933884982 0  0.3128688392940203 0.07260997451790079 0  0.550724900485678 0.9253360991633187 0  0.7142608810459105 0.2384904702214873 0  0.7045869185243887 0.1871826897887429 0  0.890625 0.734375 0  0.953125 0.765625 0  0.2111812642821677 0.8286209446459138 0  0.9590293078204457 0.09375 0  0.953431269039847 0.1435719386408004 0  0.04097069217955424 0.90625 0  0.04656873096015299 0.8564280613591996 0  0.1078743037981226 0.8541621766048062 0  0.8921256962018773 0.1458378233951939 0  0.8521576979194619 0.1084496634207678 0  0.8655663982740958 0.05464346096571447 0  0.04005659640905543 0.09375 0  0.1001448316533417 0.04246776244228261 
[...]
<PointData  Vectors="f_8394-3"> 
<DataArray  type="Float64"  Name="f_8394-3"  NumberOfComponents="3" format="ascii">-1.0420602205560998e+00 -1.0385019474464565e+00 0.0000000000000000e+00  -5.3858505929262712e-01 -5.4161268481287450e-01 0.0000000000000000e+00  4.2812914745942349e-01 4.2812914745919933e-01 0.0000000000000000e+00  -5.4424023401699984e-01 -5.3640461400845996e-01 0.0000000000000000e+00  -8.7556252560772407e-01 -8.8241698238879129e-01 0.0000000000000000e+00  -5.9219633844228362e-02 -7.1508756289683353e-02 0.0000000000000000e+00  -7.0960123102821904e-02 -6.0200022744347825e-02 0.0000000000000000e+00  -8.8251778782071144e-01 -8.7748915551014695e-01 0.0000000000000000e+00  -5.3975136640196153e-01 -5.4035338899854168e-01 0.0000000000000000e+00  -9.7440815400201886e-01 -9.6964430089431797e-01 0.0000000000000000e+00  -9.7075070586448819e-01 -9.7926913102093593e-01 0.0000000000000000e+00  -3.1484782779948350e-01 -3.0492549279068160e-01 0.0000000000000000e+00  -7.4496859590434950e-01 -7.2633138215713489e-01 0.0000000000000000e+00  -3.0823376618600484e-01 -3.1523489302145130e-01 0.0000000000000000e+00  -7.2923110769386734e-01 -7.4122145457788213e-01 0.0000000000000000e+00  1.8964158713566315e-01 1.7876771405391811e-01 0.0000000000000000e+00  1.7894866938608611e-01 1.8908626768856754e-01 0.0000000000000000e+00  -5.4016274330886516e-01 -5.4157847694700423e-01 0.0000000000000000e+00  -5.3881264977147758e-01 -5.4064699334559840e-01 0.0000000000000000e+00  -8.1044125798859279e-01 -8.1082408758432123e-01 0.0000000000000000e+00  -1.9542126116035696e-01 -1.9515800167352781e-01 0.0000000000000000e+00  -7.5577503340610441e-01 -7.4829612557245828e-01 0.0000000000000000e+00  -2.7733004171724807e-01 -2.7643227306338131e-01 0.0000000000000000e+00  -9.2935549447468380e-01 -9.3263690984534209e-01 0.0000000000000000e+00  5.2774809744997667e-02 5.3773563849825748e-02 0.0000000000000000e+00  -3.2006038001494641e-01 -3.2002463913098134e-01 0.0000000000000000e+00  -7.2908202208366679e-01 -7.3095770033668406e-01 0.0000000000000000e+00  -3.2103448763329778e-01 -3.2036948568008289e-01 0.0000000000000000e+00  -7.4068725341404962e-01 -7.4345154495196408e-01 0.0000000000000000e+00  -5.4068003283579558e-01 -5.4018174385613260e-01 0.0000000000000000e+00  -5.4245901028883248e-01 -5.3936462957703657e-01 0.0000000000000000e+00  -4.1748927687520687e-01 -4.1900055328091035e-01 0.0000000000000000e+00  -8.8748136434185465e-01 -8.8235316113653839e-01 0.0000000000000000e+00  -4.8804795700126691e-02 -4.9299994548967670e-02 0.0000000000000000e+00  -6.6179982298697082e-01 -6.6122882373060154e-01 0.0000000000000000e+00  -5.8888148869202028e-01 -5.9074696733648513e-01 0.0000000000000000e+00  -6.7632302846202297e-01 -6.7541580158928738e-01 0.0000000000000000e+00  -6.9457016550718675e-01 -6.9680984435718984e-01 0.0000000000000000e+00  -3.5990572952827726e-01 -3.5873292214701002e-01 0.0000000000000000e+00  -8.0896818014533321e-03 -8.5581788146497535e-03 0.0000000000000000e+00  -8.5433557909684954e-01 -8.5425268676225719e-01 0.0000000000000000e+00  -1.9336937460688616e-01 -1.9435684365865000e-01 0.0000000000000000e+00  -9.9357334660769014e-01 -1.0093793235114203e+00 0.0000000000000000e+00  -1.0147677311900996e+00 -9.8657885648266641e-01 0.0000000000000000e+00  3.1337053280808436e-01 2.9981651119184544e-01 0.0000000000000000e+00  2.9883094282582789e-01 3.0851029887769793e-01 0.0000000000000000e+00  -8.1994712702138495e-01 -8.2214340239091122e-01 0.0000000000000000e+00  -8.2542195049437783e-01 -8.2490734563398938e-01 0.0000000000000000e+00  -1.2391788753250696e-01 -1.2264511779210717e-01 0.0000000000000000e+00  -8.1218081459906333e-01 -8.1724242575273287e-01 0.0000000000000000e+00  -9.3035550128986344e-01 -9.4163129683551161e-01 0.0000000000000000e+00  -4.3161368799298017e-01 -4.2369890803394894e-01 0.0000000000000000e+00  -6.4105729946794632e-01 -6.5308135964673764e-01 0.0000000000000000e+00  -9.4427647318495211e-01 -9.3276193828115783e-01 0.0000000000000000e+00  -8.1383973591777681e-01 -8.0637891023803399e-01 0.0000000000000000e+00  -1.8445821833066853e-01 -1.9457220384813159e-01 0.0000000000000000e+00  -1.9488243850669776e-01 -1.8160640566059724e-01 0.0000000000000000e+00  -4.2308355503055922e-01 -4.3115017494043961e-01 0.0000000000000000e+00  -6.4928314383274244e-01 -6.4161212761854181e-01 0.0000000000000000e+00  5.4007540578706319e-02 6.5083240016706970e-02 0.0000000000000000e+00  6.4149541896556028e-02 5.4179143132024071e-02 0.0000000000000000e+00  -9.1572560643016965e-01 -9.1487616155120932e-01 0.0000000000000000e+00  -3.9896690682317537e-01 -4.0054176825500015e-01 0.0000000000000000e+00  -1.5788370695991955e-01 -1.5945753184665468e-01 0.0000000000000000e+00  -4.3904038702875164e-01 -4.3865810929017590e-01 0.0000000000000000e+00  -6.2585981435343874e-01 -6.2689988900314508e-01 0.0000000000000000e+00  -6.7337146840577533e-01 -6.7553271595111930e-01 0.0000000000000000e+00  -4.0840110523378503e-01 -4.0727936994174230e-01 0.0000000000000000e+00  -4.5915156400382440e-01 -4.6003261136275231e-01 0.0000000000000000e+00  -4.0717411483423904e-01 -4.0881105589764499e-01 0.0000000000000000e+00  -5.3994051431966172e-01 -5.4243649340743394e-01 0.0000000000000000e+00  -6.3542843595453524e-01 -6.3588337036044029e-01 0.0000000000000000e+00  -7.2227056674742185e-01 -7.2154518961904124e-01 0.0000000000000000e+00  -9.5926272569030302e-01 -9.6137835560429186e-01 0.0000000000000000e+00  -9.5728262927454166e-01 -9.5740009881287569e-01 0.0000000000000000e+00  -8.7440174850387598e-01 -8.7046183887111461e-01 0.0000000000000000e+00  1.1578988217774590e-01 1.1571912272423399e-01 0.0000000000000000e+00  2.0889777331064047e-01 2.0956423501341845e-01 0.0000000000000000e+00  8.0252702600479411e-02 8.0297020075064784e-02 0.0000000000000000e+00  -8.0014954747994693e-01 -8.0159590852345786e-01 0.0000000000000000e+00  -9.8443160388459383e-01 -9.8257927377169918e-01 0.0000000000000000e+00  -7.8220578475998048e-01 -7.8339889176236022e-01 0.0000000000000000e+00  -2.8778823966940148e-01 -2.8813108810069121e-01 0.0000000000000000e+00  -5.3327581924329059e-01 -5.3283255840575838e-01 0.0000000000000000e+00  -5.7462563277863143e-01 -5.7238625153266021e-01 0.0000000000000000e+00  -6.3536320231749854e-01 -6.3088174109175055e-01 0.0000000000000000e+00  -5.3994916606996446e-01 -5.3992458710181324e-01 0.0000000000000000e+00  -4.3892011795356867e-01 -4.3859319295816213e-01 0.0000000000000000e+00  -5.4029153193818813e-01 -5.4146253497110053e-01 0.0000000000000000e+00  -6.3554639207055952e-01 -6.3351287276352375e-01 0.0000000000000000e+00  -5.1491366869206978e-01 -5.1714798338186241e-01 0.0000000000000000e+00  -3.7099407317760935e-01 -3.7377332270444885e-01 0.0000000000000000e+00  -5.5643943130672648e-02 -5.4776956468171989e-02 0.0000000000000000e+00  -1.9762435099078274e-01 -1.9726426836007704e-01 0.0000000000000000e+00  -1.9825295306815593e-01 -1.9648266500353706e-01 0.0000000000000000e+00  -5.0590961059580253e-01 -5.0609943717475891e-01 0.0000000000000000e+00  -8.1180945090925272e-01 -8.1119560185507300e-01 0.0000000000000000e+00  -7.3687537706583595e-02 -7.1993038936572107e-02 0.0000000000000000e+00  -2.8356098389696760e-01 -2.8107223318632701e-01 0.0000000000000000e+00  -4.3360333684562302e-01 -4.3399379475894417e-01 0.0000000000000000e+00  -2.5755687724057735e-01 -2.5715371746418236e-01 0.0000000000000000e+00  -1.6564133201602463e-01 -1.6354202539579854e-01 0.0000000000000000e+00  -4.3691653809264525e-01 -4.3499666996346309e-01 0.0000000000000000e+00  -4.5578327328793744e-01 -4.5596708578011336e-01 0.0000000000000000e+00  -6.3654045117721936e-01 -6.3802954952319835e-01 0.0000000000000000e+00  -9.2431033717011490e-01 -9.2237336438674156e-01 0.0000000000000000e+00  -9.6576460643724149e-01 -9.5150788185316160e-01 0.0000000000000000e+00  -8.2139524197172786e-01 -8.2252763289171016e-01 0.0000000000000000e+00  -1.2546313217985766e-01 -1.2627586249602055e-01 0.0000000000000000e+00  1.1641692040170463e-01 1.2663268012165255e-01 0.0000000000000000e+00  -6.4966394710419451e-01 -6.4952505381599901e-01 0.0000000000000000e+00  -9.0828228775516273e-01 -9.0731662887530007e-01 0.0000000000000000e+00  -8.8658165877202677e-01 -8.8556418366622980e-01 0.0000000000000000e+00  -6.7481131855699239e-01 -6.7351923697999139e-01 0.0000000000000000e+00  -7.7467135909653972e-01 -7.7547389701366021e-01 0.0000000000000000e+00  -7.4240252201301371e-01 -7.4130875709493094e-01 0.0000000000000000e+00  -6.2790085597781686e-01 -6.2889925435597860e-01 0.0000000000000000e+00  -3.0000699604398678e-01 -2.9871895493226308e-01 0.0000000000000000e+00  -1.9018717878829920e-02 -1.7683596678200776e-02 0.0000000000000000e+00  -3.4047797667695334e-01 -3.4148495166130888e-01 0.0000000000000000e+00  -7.5600899005547073e-01 -7.5777243401987837e-01 0.0000000000000000e+00  -3.0181092387370834e-01 -3.0395767724529127e-01 0.0000000000000000e+00  2.3977291440502047e-01 2.5325835053175549e-01 0.0000000000000000e+00  -5.9685363121324941e-01 -5.9515673910585654e-01 0.0000000000000000e+00  -7.0876332519342244e-01 -7.0806462131296832e-01 0.0000000000000000e+00  3.7665326154535750e-01 3.5872621387928677e-01 0.0000000000000000e+00  -8.7986022774676687e-01 -8.7745086901663993e-01 0.0000000000000000e+00  -8.2046396507371930e-03 7.7379507983130549e-04 0.0000000000000000e+00  -4.8816622676258740e-02 -4.7652929398267332e-02 0.0000000000000000e+00  -7.5121758572687913e-01 -7.5241344132276211e-01 0.0000000000000000e+00  -8.6872567391172661e-01 -8.6714595156153540e-01 0.0000000000000000e+00  -2.5563098724311234e-01 -2.5588570554111262e-01 0.0000000000000000e+00  -5.9157321928076478e-01 -5.9310972679103147e-01 0.0000000000000000e+00  -6.8986105616118643e-01 -6.8954748739340843e-01 0.0000000000000000e+00  -7.1679083992179571e-01 -7.2079050926425470e-01 0.0000000000000000e+00  -3.4249555397479398e-01 -3.4314289586672275e-01 0.0000000000000000e+00  -3.7650614597543369e-01 -3.7620248666807710e-01 0.0000000000000000e+00  -9.3030119690887680e-01 -9.3013869891991352e-01 0.0000000000000000e+00  -4.4984682626915096e-01 -4.4980200153465832e-01 0.0000000000000000e+00  -7.6230121562430520e-01 -7.6070433580830321e-01 0.0000000000000000e+00  -9.0481738269148737e-01 -9.0594771822753195e-01 0.0000000000000000e+00  -8.1186760951673087e-01 -8.1173682228474653e-01 0.0000000000000000e+00  -9.0859265267439593e-01 -9.1458921889932165e-01 0.0000000000000000e+00  -8.6508093149524323e-01 -8.6188143481389556e-01 0.0000000000000000e+00  8.5174684967768241e-02 8.5726423411845290e-02 0.0000000000000000e+00  -7.5087989353444934e-03 -8.1250915212692232e-03 0.0000000000000000e+00  3.5718532282157761e-01 3.8071174324515311e-01 0.0000000000000000e+00  3.1331199180311728e-02 3.1116849110140385e-02 0.0000000000000000e+00  -6.5080189408244893e-01 -6.5552916637075875e-01 0.0000000000000000e+00  -4.6139003369887199e-01 -4.6006118181572997e-01 0.0000000000000000e+00  -5.9614657232908030e-01 -5.9694202021810128e-01 0.0000000000000000e+00  -9.6209670106806255e-01 -9.6409647231450357e-01 0.0000000000000000e+00  -9.5007084435752520e-01 -9.5695661540478016e-01 0.0000000000000000e+00  1.7828046703998893e-01 1.7917508985365127e-01 0.0000000000000000e+00  -6.9999137846888193e-01 -6.9967740566221015e-01 0.0000000000000000e+00  -5.2553591813723799e-01 -5.2482327020097275e-01 0.0000000000000000e+00  -4.0984466901296956e-01 -4.1032658756125040e-01 0.0000000000000000e+00  -6.1636173319180054e-01 -6.1622167473537404e-01 0.0000000000000000e+00  -7.7248221037596121e-01 -7.8271535055916952e-01 0.0000000000000000e+00  -3.6210455816852766e-01 -3.6396499716476527e-01 0.0000000000000000e+00  2.0809507512086567e-01 2.0968602890126567e-01 0.0000000000000000e+00  -1.8951473892771689e-01 -1.8958568911251883e-01 0.0000000000000000e+00  -2.8602542675232756e-01 -2.8451143857694133e-01 0.0000000000000000e+00  -5.9193283711566924e-01 -6.0121979818415072e-01 0.0000000000000000e+00  -4.8029971049451015e-01 -4.8713107711275605e-01 0.0000000000000000e+00  -4.8675207722055319e-01 -4.7834494689453688e-01 0.0000000000000000e+00  -6.0327961417557419e-01 -5.8782826342626893e-01 0.0000000000000000e+00  -8.4634186946170231e-01 -8.4495694385782016e-01 0.0000000000000000e+00  -8.5189437163045212e-01 -8.4935025145764953e-01 0.0000000000000000e+00  -7.8674141304090262e-01 -7.8493815503548026e-01 0.0000000000000000e+00  -9.4671032700115898e-01 -9.4623206331548404e-01 0.0000000000000000e+00  -9.1459396108939495e-01 -9.1402558490539865e-01 0.0000000000000000e+00  -1.4469302828237118e-01 -1.4646714945280673e-01 0.0000000000000000e+00  -9.9963187625128214e-01 -1.0191712813700851e+00 0.0000000000000000e+00  -1.0080304336076165e+00 -1.0001036562177552e+00 0.0000000000000000e+00  3.3806416698393391e-02 3.2727301467921854e-02 0.0000000000000000e+00  -8.2846159235946037e-01 -8.2752858270274388e-01 0.0000000000000000e+00  -8.3566676805507623e-01 -8.3572645868236206e-01 0.0000000000000000e+00  -8.0201082756441455e-01 -7.9690483796812983e-01 0.0000000000000000e+00  -6.9028534039646883e-01 -6.8969088692524472e-01 0.0000000000000000e+00  -3.5753448909400515e-01 -3.5905095479979893e-01 0.0000000000000000e+00  -4.7084909992111190e-01 -4.6917380582823570e-01 0.0000000000000000e+00  -1.3277957532155080e-01 -1.3249521344999859e-01 0.0000000000000000e+00  -1.3278198098917143e-01 -1.3242863154741052e-01 0.0000000000000000e+00  -2.5534335812316400e-01 -2.4331123295378293e-01 0.0000000000000000e+00  -3.7343297213218524e-01 -3.6773496682866502e-01 0.0000000000000000e+00  2.2963719409733740e-03 -7.9036790087203598e-03 0.0000000000000000e+00  -1.3320145457589971e-01 -1.2072448713570455e-01 0.0000000000000000e+00  -2.4674898228573960e-01 -2.5526106834297752e-01 0.0000000000000000e+00  -1.2371614934061709e-01 -1.3276999360407712e-01 0.0000000000000000e+00  -6.8768911148912371e-01 -6.9565437997814394e-01 0.0000000000000000e+00  -3.6750524237505794e-01 -3.7408990832566558e-01 0.0000000000000000e+00  -8.4656373753178993e-01 -8.5984431167925524e-01 0.0000000000000000e+00  -9.8350228417320817e-01 -9.9153324171788115e-01 0.0000000000000000e+00  -9.9908265124877027e-01 -9.8546916580854793e-01 0.0000000000000000e+00  -8.6715320696998233e-01 -8.4413519075305565e-01 0.0000000000000000e+00  -7.7991011884047468e-01 -7.7167320108431126e-01 0.0000000000000000e+00  -7.0123959365273913e-01 -6.8899949529977400e-01 0.0000000000000000e+00  1.2606194521422923e-01 1.1644225594110719e-01 0.0000000000000000e+00  2.5417582585080528e-01 2.3792474685594273e-01 0.0000000000000000e+00  -1.0609543108219593e-01 -1.0741532937841103e-01 0.0000000000000000e+00  -7.7320681258792479e-01 -7.7250237277516443e-01 0.0000000000000000e+00  2.9802456672470018e-01 2.9619800879169256e-01 0.0000000000000000e+00  -3.3049765367103012e-01 -3.3142100017143528e-01 0.0000000000000000e+00  -5.9245464157759964e-01 -5.9169818434201948e-01 0.0000000000000000e+00  -6.8615395970748883e-01 -6.8220763075810531e-01 0.0000000000000000e+00  -5.9354456141611545e-01 -5.9182258659028242e-01 0.0000000000000000e+00  -3.9448521208947229e-01 -3.9141718223818700e-01 0.0000000000000000e+00  -9.7786797255879998e-01 -9.8004656046586924e-01 0.0000000000000000e+00  -9.5677414482803869e-01 -9.5459045192114700e-01 0.0000000000000000e+00  -2.0731074422285359e-01 -2.0708101444997143e-01 0.0000000000000000e+00  -2.1261032010510209e-01 -2.1234726655890751e-01 0.0000000000000000e+00  -4.5368480536857758e-01 -4.5694168742339181e-01 0.0000000000000000e+00  -2.2374220131137235e-01 -2.2319772393129308e-01 0.0000000000000000e+00  -9.5054518820957140e-02 -9.5119156457652787e-02 0.0000000000000000e+00  -8.9616853224652004e-01 -8.9911004001200656e-01 0.0000000000000000e+00  -5.1871750917109161e-01 -5.1588081470295455e-01 0.0000000000000000e+00  -4.5364398007029488e-01 -4.5582430678438562e-01 0.0000000000000000e+00  -6.7977205436085819e-01 -6.8550890487837113e-01 0.0000000000000000e+00  1.0491312149548160e-01 1.0453724630987668e-01 0.0000000000000000e+00  -4.9867713681473441e-01 -5.0002643798606861e-01 0.0000000000000000e+00  -3.8178769607729901e-01 -3.8242152488510500e-01 0.0000000000000000e+00  -4.6727036435741648e-01 -4.6824497535902793e-01 0.0000000000000000e+00  -3.7214878154716435e-01 -3.7411320921265839e-01 0.0000000000000000e+00  -5.1966991990699329e-01 -5.1921741489752304e-01 0.0000000000000000e+00  -4.7960311197206375e-02 -4.6975063438795178e-02 0.0000000000000000e+00  -1.0924996446037907e-01 -1.0728148753303160e-01 0.0000000000000000e+00  -7.1595876427042615e-01 -7.1418389973709417e-01 0.0000000000000000e+00  -8.8294155141775277e-01 -8.8599146447026500e-01 0.0000000000000000e+00  -4.7147157111173554e-01 -4.6999951273689605e-01 0.0000000000000000e+00  -6.0169194094236500e-01 -6.0394153295139652e-01 0.0000000000000000e+00  1.4494665313020205e-01 1.4533151964544580e-01 0.0000000000000000e+00  2.5227219236513510e-01 2.5353604414707964e-01 0.0000000000000000e+00  -3.8109511500715720e-01 -3.8050593052972470e-01 0.0000000000000000e+00  -1.9316210634697351e-01 -1.9354491671192470e-01 0.0000000000000000e+00  -2.4043677253099321e-01 -2.4139261462113734e-01 0.0000000000000000e+00  -8.9394982345473351e-01 -8.9564780984859438e-01 0.0000000000000000e+00  -6.5290135780870751e-01 -6.5197585894115551e-01 0.0000000000000000e+00  -6.0015617514028952e-01 -5.9812453190699566e-01 0.0000000000000000e+00  -8.5757587582814709e-02 -8.5782588256893694e-02 0.0000000000000000e+00  -2.6973878377361010e-01 -2.7065392881341310e-01 0.0000000000000000e+00  -2.5652817693647695e-01 -2.5610490785211804e-01 0.0000000000000000e+00  -7.0856325380320406e-01 -7.0587118644152991e-01 0.0000000000000000e+00  -4.7224033523760583e-01 -4.7362217646523608e-01 0.0000000000000000e+00  -6.0435017992202567e-01 -6.0604559704828975e-01 0.0000000000000000e+00  -5.6640039589068447e-01 -5.6627566972419929e-01 0.0000000000000000e+00  -1.8271038991284200e-01 -1.8323986080727075e-01 0.0000000000000000e+00  -6.5220728138043482e-01 -6.5362788174626174e-01 0.0000000000000000e+00  -2.6585969862811287e-01 -2.6728994221179719e-01 0.0000000000000000e+00  1.5218734395247482e-01 1.5182204044335454e-01 0.0000000000000000e+00  1.0277872687752541e-01 1.0341599976995774e-01 0.0000000000000000e+00  -5.1091833522363217e-01 -5.1054978901623838e-01 0.0000000000000000e+00  -8.6208548259215512e-01 -8.6147825193979410e-01 0.0000000000000000e+00  -6.3460318939948235e-01 -6.3687071656932959e-01 0.0000000000000000e+00  -5.0870915168664055e-01 -5.1126447520765983e-01 0.0000000000000000e+00  -9.4066066667120818e-01 -9.4158058254223453e-01 0.0000000000000000e+00  -9.8139346519706883e-01 -9.8111694134484595e-01 0.0000000000000000e+00  -5.3028555386237741e-01 -5.3052919430999901e-01 0.0000000000000000e+00  -3.5934450786408056e-01 -3.5867875659067655e-01 0.0000000000000000e+00  -4.5542458556923315e-01 -4.5575474383560433e-01 0.0000000000000000e+00  -4.0840775634797283e-01 -4.0824468980482842e-01 0.0000000000000000e+00  -9.1908615302969765e-01 -9.2066456592991286e-01 0.0000000000000000e+00  2.3372382096245300e-02 2.2826473189424566e-02 0.0000000000000000e+00  -7.6347483305579777e-01 -7.5838053507418079e-01 0.0000000000000000e+00  -8.3973605382894134e-01 -8.4398010183748795e-01 0.0000000000000000e+00  -7.9886714496574562e-01 -7.9689434028232731e-01 0.0000000000000000e+00  -7.8014447029116929e-01 -7.7789111829188085e-01 0.0000000000000000e+00  -7.4955839653278877e-01 -7.5147004981830279e-01 0.0000000000000000e+00  -5.0519722517390209e-01 -5.0529357369433758e-01 0.0000000000000000e+00  -4.7131391043906234e-01 -4.7051257114104272e-01 0.0000000000000000e+00  -3.5223030631200147e-01 -3.5367624150492138e-01 0.0000000000000000e+00  -2.3511921891744014e-01 -2.3439307238385276e-01 0.0000000000000000e+00  -9.6906669940074042e-01 -9.6753918923785842e-01 0.0000000000000000e+00  -9.3755115197303796e-01 -9.3610319580141388e-01 0.0000000000000000e+00  -9.5650633616440139e-01 -9.4493451194294731e-01 0.0000000000000000e+00  -3.0001676912673186e-01 -3.0202138934587797e-01 0.0000000000000000e+00  -2.7454601007216456e-01 -2.7340611315049168e-01 0.0000000000000000e+00  