<?xml version="1.0"?>
<VTKFile type="UnstructuredGrid"  version="0.1"  >
<UnstructuredGrid>
<Piece  NumberOfPoints="1385" NumberOfCells="2640">
<Points>
<DataArray  type="Float64"  NumberOfComponents="3"  format="ascii">0 0 0  1 0 0  1 1 0  0 1 0  0.5 0 0  1 0.5 0  0.5 1 0  0 0.5 0  0.5 0.5 0  0 0.25 0  0.25 0 0  0.25 1 0  0 0.75 0  1 0.25 0  0.75 0 0  1 0.75 0  0.75 1 0  0.7083333333333333 0.2916666666666667 0  0.2916666666666666 0.7083333333333334 0  0.375 0.25 0  0.75 0.625 0  0.2569444444444444 0.4652777777777778 0  0.5366379310344828 0.7535919540229885 0  0.1875 0.1875 0  0.8125 0.8125 0  0.869047619047619 0.375 0  0.1450441919191919 0.6052714646464646 0  0.375 0.8690476190476191 0  0.5526960784313725 0.1825980392156862 0  0.8385416666666666 0.1614583333333334 0  0.1614583333333333 0.8385416666666667 0  0.6736111111111112 0.4652777777777778 0  0.1367521367521368 0.3477564102564102 0  0.6570970491253563 0.8648656830417855 0  0.5102479397556124 0.3386260301221938 0  0.3654513888888889 0.5737847222222222 0  0.6929750044954185 0.1362784921584263 0  0.388576102743835 0.411911725237599 0  0.6091269841269842 0.5942460317460317 0  0.875 0.6875 0  0.427278890279516 0.119889445139758 0  0.8544456845238095 0.5213913690476191 0  0.125 0 0  0 0.125 0  1 0.875 0  0.875 1 0  0.1280008648150532 0.4769292340226777 0  0.2695382451711197 0.3321750950221553 0  0.7031567235715964 0.7447810921428012 0  0.625 0 0  0.375 0 0  0.125 1 0  0.875 0 0  0 0.375 0  0 0.625 0  1 0.375 0  0.375 1 0  1 0.125 0  0 0.875 0  0.625 1 0  1 0.625 0  0.2979288363930608 0.1201429454643536 0  0.410919540229885 0.7484605911330049 0  0.5325041980395562 0.878905151526474 0  0.4831670727569156 0.6331060043826487 0  0.1735997378973042 0.7204747378973043 0  0.2534919507575758 0.5772372159090909 0  0.2633928571428572 0.8876488095238095 0  0.8199404761904761 0.2730654761904762 0  0.75830270586982 0.3919383189517417 0  0.5750282248382511 0.4237522353023667 0  0.6008360210023379 0.2794828358598495 0  0.08163442644334186 0.6821295860397322 0  0.08333333333333333 0.1875 0  0.2028380815996574 0.08844602719988583 0  0.2766521142611967 0.2325436572164097 0  0.90625 0.78125 0  0.890625 0.890625 0  0.7545696325008384 0.8973565441669461 0  0.5625 0.08086590340834317 0  0.09077380952380953 0.09077380952380952 0  0.4610923478694773 0.209034015149656 0  0.7542527598351648 0.5248380520595106 0  0.6459235536037465 0.3619913988405765 0  0.7560381768882634 0.20506142233852 0  0.07073252688172042 0.8125 0  0.0924753097241701 0.9078102849914793 0  0.9292674731182795 0.1875 0  0.9075246902758297 0.09218971500852073 0  0.8125 0.07073252688172045 0  0.2400955776842301 0.7869705776842302 0  0.9121050213379069 0.2781978201831695 0  0.7916878157143976 0.7239689078571988 0  0.9345238095238094 0.4375 0  0.4375 0.9345238095238095 0  0.3725616989755203 0.6651895248862173 0  0.06536271996350887 0.5625 0  0.9348362560379583 0.5625 0  0.456646798987055 0.8277247094351965 0  0.1875 0.9355758238725954 0  0.6169761231634859 0.6939779188977889 0  0.6226854751147515 0.7827911461419014 0  0.3305695598137626 0.7901697871282585 0  0.5865305325818898 0.5101085479043448 0  0.6622701297028378 0.2177663989757395 0  0.1354166666666667 0.2591702279202279 0  0 0.3125 0  0.2094429575680048 0.3936361846162499 0  0.836666296419157 0.607917407161686 0  0.6875 1 0  0.214261555450504 0.6492551722020035 0  0 0.4375 0  0.07731537126068377 0.40625 0  0.3427725432967068 0.4879566233699599 0  0.3550792513951871 0.3331953632609953 0  0.4462473953896857 0.2887834789342508 0  0.4747801464819794 0.417386052030127 0  0.8229836475148948 0.4443292349237342 0  0.7322605135514757 0.8199240278289671 0  0.6756431877205955 0.5468989748126787 0  0.1968419507215863 0.5194573482612496 0  0.3285590277777778 0.9345238095238095 0  0.8125 1 0  0.4198917601920009 0.5134893045331258 0  0.5232405503206691 0.2595791787880157 0  1 0.9375 0  0.1987510870015086 0.3025185951894431 0  0.5625 1 0  0.6005390654136388 0.9228110509230952 0  0.6411254848194414 0.07704872765442942 0  0.3357233162523242 0.1855113224530532 0  0.6730653396610877 0.6393887462324165 0  0.310966987234063 0.6240019765311626 0  0.7368737836204349 0.07457755202327881 0  0.6192316414418171 0.1485238406378594 0  0.5432429670607106 0.678552703844006 0  0.4754371679695679 0.7103946803120881 0  0.07501324890749672 0.3043839897335739 0  0.5358146975860403 0.5688321463205916 0  0.3115271739500156 0.3982137365971444 0  0.3625191397122174 0.0767854603650549 0  0.5024029442563831 0.1264128223758444 0  0.4375 0 0  0.4699946908887376 0.06379961173775725 0  0.9375 0.71875 0  0.9272105898044465 0.635671179608893 0  0.9375 1 0  0.6690971819568612 0.9331530898202766 0  0.1073454944778885 0.7499206387638554 0  0.8699082999280406 0.2232403652524313 0  0.5773118091863964 0.3548027349159383 0  0.1354166666666667 0.1428571428571428 0  0.3125 0 0  0.8241684193077341 0.9257452995055244 0  0.4352314948354036 0.3586940847489378 0  0.4351301473778832 0.5819726043539077 0  0.8073232928518163 0.3419398170341962 0  0.7775949246947366 0.1298519409204575 0  0.6875 0 0  0.7413513991851041 0.457933324954483 0  0.939453125 0.841796875 0  0.5630355154606987 0.8171875156478349 0  0.9345238095238095 0.3461466592368577 0  0.9375 0 0  1 0.0625 0  0.0625 1 0  0 0.9375 0  0.06552178593177167 0.4969053669623468 0  0.1424866619031703 0.4130277709291224 0  0.1275287182444726 0.5422946908002588 0  0.2637686595586339 0.06413888464529549 0  0.2524263535491086 0.1697437503243817 0  0.7367218397988525 0.6888573970660841 0  0.0625 0 0  0 0.0625 0  0.8463594539285995 0.7578283617857982 0  0.3128751192101563 0.2851997374369947 0  0.4015281788351144 0.1806421385113692 0  0.1910251795116588 0.4553332197174453 0  0.287797471442006 0.5222621440543902 0  0.3962628745986055 0.8097380085535307 0  0.3505895299554843 0.7304878890838692 0  0.5019151500495276 0.9356042615328103 0  0.9374389419410134 0.4999931039076005 0  0.3125 1 0  0.1875 1 0  1 0.5625 0  0.4375 1 0  1 0.3125 0  1 0.4375 0  0.8125 0 0  1 0.1875 0  0.5625 0 0  0.1875 0 0  0 0.1875 0  0 0.5625 0  0 0.6875 0  0 0.8125 0  1 0.6875 0  1 0.8125 0  0.8021696218581627 0.6612893947866073 0  0.06154922295426143 0.6239401126946708 0  0.9359375 0.9359375 0  0.4666158024849896 0.7691515918155014 0  0.2318201265217025 0.7064974250277525 0  0.1565954253579966 0.6635489312486841 0  0.1598132503680848 0.7787147500325552 0  0.3146529991605639 0.8510876378205265 0  0.1461873209418733 0.05982804528877814 0  0.06109554988524315 0.2446551776247686 0  0.8054950308560754 0.5564226538848541 0  0.470541749491976 0.8853316336952531 0  0.6948472567465137 0.4042308563372457 0  0.8802828472348889 0.4658893256343853 0  0.6788075634946739 0.7974194205806069 0  0.2155048659603867 0.2428201584940968 0  0.8131223143423806 0.2132171049028394 0  0.4330798005432235 0.6671274900735726 0  0.6015279126162613 0.2187368078743274 0  0.8061636571464289 0.8703766630361714 0  0.7008230445061776 0.3478568388444072 0  0.8638466246958771 0.3147095987735538 0  0.204801534004265 0.8789209409594009 0  0.2449006736431132 0.9424182882803838 0  0.7611268409371427 0.2643056884799992 0  0.7552800864046191 0.7678006649959446 0  0.5983639638906616 0.864113435029236 0  0.1956559506814437 0.577281203577426 0  0.3527670268164207 0.1320469097565204 0  0.7530364577483248 0.3262386077083089 0  0.4535919187979363 0.4690107087451527 0  0.8824869791666666 0.8336588541666666 0  0.8814453125 0.9451171875 0  0.5582987942628019 0.622421666543858 0  0.6817532446064828 0.6939001801354731 0  0.3830295138888889 0.9450968952922078 0  0.4140603937012541 0.05211333372716105 0  0.5535864501303013 0.3060591985391672 0  0.6560130086346878 0.2729726562211558 0  0.890203140221684 0.5948314305427268 0  0.7043857725999024 0.593980890020804 0  0.5105843922695152 0.8016828014338627 0  0.05365910753708378 0.7315110031682004 0  0.616904573672261 0.4621186633436136 0  0.5338511646455415 0.387875898899613 0  0.5231769258947843 0.4477682463140762 0  0.650302973237622 0.7370722302085519 0  0.3927483139621257 0.4662414504529014 0  0.8034595960585199 0.4972538342758211 0  0.7738337841682438 0.9496376207663251 0  0.7193737507158268 0.954685447650112 0  0.482525916480686 0.5528257169991676 0  0.2533501157346781 0.2809495420003238 0  0.3118487924482243 0.5702930126570319 0  0.6257598847669529 0.4104163315430518 0  0.1354166666666667 0.1955605158730158 0  0.04166666666666666 0.15625 0  0.3956448985530264 0.6174149462065157 0  0.8102897701818546 0.3938784238208349 0  0.2641154190013625 0.8344469561943118 0  0.642852220770013 0.5068794586563659 0  0.05271458179508221 0.355846947336007 0  0.7021551360070266 0.8921457280225779 0  0.5692125776683765 0.1328512638850284 0  0.5206162811937602 0.04865158770992991 0  0.6001838442201555 0.04540556991297563 0  0.2597716608242787 0.4118346398477178 0  0.4040584599473195 0.3179589136784675 0  0.1480337679295207 0.8941560631483065 0  0.1344356707112281 0.9466251177415842 0  0.7114696411829317 0.4983917389078826 0  0.7585704698442475 0.5751926345944629 0  0.2189131956390871 0.04022068508159698 0  0.2476935455192043 0.1123642267635843 0  0.185995005654517 0.1365524537205238 0  0.6223414373308711 0.643380839165121 0  0.5732602596637543 0.7190051747306219 0  0.268358222364537 0.6586246524467934 0  0.3265879848129173 0.2369791782191225 0  0.1267095595787346 0.7034787238999181 0  0.1115202922226038 0.6421997933884982 0  0.3128688392940203 0.07260997451790079 0  0.550724900485678 0.9253360991633187 0  0.7142608810459105 0.2384904702214873 0  0.7045869185243887 0.1871826897887429 0  0.890625 0.734375 0  0.953125 0.765625 0  0.2111812642821677 0.8286209446459138 0  0.9590293078204457 0.09375 0  0.953431269039847 0.1435719386408004 0  0.04097069217955424 0.90625 0  0.04656873096015299 0.8564280613591996 0  0.1078743037981226 0.8541621766048062 0  0.8921256962018773 0.1458378233951939 0  0.8521576979194619 0.1084496634207678 0  0.8655663982740958 0.05464346096571447 0  0.04005659640905543 0.09375 0  0.1001448316533417 0.04246776244228261 
[...]
<PointData  Vectors="f_8394-3"> 
<DataArray  type="Float64"  Name="f_8394-3"  NumberOfComponents="3" format="ascii">-1.0022706199978355e+00 -1.0022713147790940e+00 0.0000000000000000e+00  -5.4129654530076088e-01 -5.4134833423741535e-01 0.0000000000000000e+00  4.1702996995138458e-01 4.1702996995119773e-01 0.0000000000000000e+00  -5.4125513290023708e-01 -5.4133662754723721e-01 0.0000000000000000e+00  -8.7929660434384505e-01 -8.8180718589534890e-01 0.0000000000000000e+00  -6.8556282240546870e-02 -7.0854671960293769e-02 0.0000000000000000e+00  -7.0844430838885225e-02 -6.8676460450768667e-02 0.0000000000000000e+00  -8.8164274244817664e-01 -8.7920053313160695e-01 0.0000000000000000e+00  -5.4139129483703163e-01 -5.4144866170568773e-01 0.0000000000000000e+00  -9.7336236719526537e-01 -9.7091680154623072e-01 0.0000000000000000e+00  -9.7088312513112218e-01 -9.7343378206756259e-01 0.0000000000000000e+00  -3.1593643933579785e-01 -3.1367548644382692e-01 0.0000000000000000e+00  -7.3516020331130716e-01 -7.3314956310376622e-01 0.0000000000000000e+00  -3.1382821398251887e-01 -3.1592682054917876e-01 0.0000000000000000e+00  -7.3315741702584281e-01 -7.3500791508453189e-01 0.0000000000000000e+00  1.8120630858337203e-01 1.7858217099848767e-01 0.0000000000000000e+00  1.7860137130524459e-01 1.8118636138206207e-01 0.0000000000000000e+00  -5.4140413306102420e-01 -5.4148117911041183e-01 0.0000000000000000e+00  -5.4144902568975284e-01 -5.4132208300380202e-01 0.0000000000000000e+00  -8.1254351924963786e-01 -8.1262067504512447e-01 0.0000000000000000e+00  -1.9489588187671894e-01 -1.9512812555111556e-01 0.0000000000000000e+00  -7.5187554608912355e-01 -7.5188630011526247e-01 0.0000000000000000e+00  -2.7751101846122522e-01 -2.7734495930359498e-01 0.0000000000000000e+00  -9.3232716430622753e-01 -9.3236550186899669e-01 0.0000000000000000e+00  5.4166471167474251e-02 5.4363058282973747e-02 0.0000000000000000e+00  -3.2156609873244735e-01 -3.2171075326326937e-01 0.0000000000000000e+00  -7.3304194734320816e-01 -7.3295936517730143e-01 0.0000000000000000e+00  -3.2163369849173196e-01 -3.2154235868365066e-01 0.0000000000000000e+00  -7.4314602672730290e-01 -7.4305887122030834e-01 0.0000000000000000e+00  -5.4139814586021462e-01 -5.4144160526424845e-01 0.0000000000000000e+00  -5.4152170749762030e-01 -5.4136389574905563e-01 0.0000000000000000e+00  -4.1949519576239930e-01 -4.1945718742426363e-01 0.0000000000000000e+00  -8.8675657812811548e-01 -8.8667908986388455e-01 0.0000000000000000e+00  -4.8947540284983021e-02 -4.8906645750240993e-02 0.0000000000000000e+00  -6.6211535435893420e-01 -6.6217426488533337e-01 0.0000000000000000e+00  -5.9158177968456160e-01 -5.9167960007385267e-01 0.0000000000000000e+00  -6.7674680548039112e-01 -6.7693372864149459e-01 0.0000000000000000e+00  -6.9767045564714536e-01 -6.9781163793535783e-01 0.0000000000000000e+00  -3.5990898462091864e-01 -3.6000212268691623e-01 0.0000000000000000e+00  -8.1787532204286618e-03 -8.4688248922298523e-03 0.0000000000000000e+00  -8.5583047216365393e-01 -8.5574917844419518e-01 0.0000000000000000e+00  -1.9402482193771836e-01 -1.9405744585980078e-01 0.0000000000000000e+00  -9.9415284853375585e-01 -9.9712693939779828e-01 0.0000000000000000e+00  -9.9719276187558581e-01 -9.9417568831232972e-01 0.0000000000000000e+00  3.0308288360040780e-01 3.0010782511868384e-01 0.0000000000000000e+00  3.0011614340500592e-01 3.0296656783298109e-01 0.0000000000000000e+00  -8.2433659510654511e-01 -8.2419539275534881e-01 0.0000000000000000e+00  -8.2599908217655793e-01 -8.2606096943987195e-01 0.0000000000000000e+00  -1.2291486312809974e-01 -1.2272894303344312e-01 0.0000000000000000e+00  -8.1265016244906185e-01 -8.1499370366501356e-01 0.0000000000000000e+00  -9.3226042718865199e-01 -9.3477945769558912e-01 0.0000000000000000e+00  -4.3203361839660204e-01 -4.3009378968060558e-01 0.0000000000000000e+00  -6.4225273134462535e-01 -6.4449099217595385e-01 0.0000000000000000e+00  -9.3476234320765994e-01 -9.3237969521478237e-01 0.0000000000000000e+00  -8.1502590330962210e-01 -8.1262051235669508e-01 0.0000000000000000e+00  -1.9265193077166909e-01 -1.9494682980085543e-01 0.0000000000000000e+00  -1.9492279991224126e-01 -1.9268262816107018e-01 0.0000000000000000e+00  -4.3021317590032526e-01 -4.3199239553596863e-01 0.0000000000000000e+00  -6.4437010485303592e-01 -6.4224529407368747e-01 0.0000000000000000e+00  5.4263136791660289e-02 5.6691667246697594e-02 0.0000000000000000e+00  5.6515357028200409e-02 5.4276770817430250e-02 0.0000000000000000e+00  -9.1569021727977695e-01 -9.1591613077796752e-01 0.0000000000000000e+00  -4.0073139658420021e-01 -4.0059885584731486e-01 0.0000000000000000e+00  -1.5903663723689276e-01 -1.5896033554380387e-01 0.0000000000000000e+00  -4.4003354664419658e-01 -4.4000386101020694e-01 0.0000000000000000e+00  -6.2754730517406165e-01 -6.2747371912725969e-01 0.0000000000000000e+00  -6.7573660829937976e-01 -6.7570441577148699e-01 0.0000000000000000e+00  -4.0828950227975946e-01 -4.0830126499555597e-01 0.0000000000000000e+00  -4.6077048136153687e-01 -4.6087161324960529e-01 0.0000000000000000e+00  -4.0903853221344966e-01 -4.0919999922381628e-01 0.0000000000000000e+00  -5.4245049051110394e-01 -5.4245701830881399e-01 0.0000000000000000e+00  -6.3831973709143408e-01 -6.3822946078477361e-01 0.0000000000000000e+00  -7.2410323951912847e-01 -7.2367316018144134e-01 0.0000000000000000e+00  -9.6597598232196014e-01 -9.6506625804622304e-01 0.0000000000000000e+00  -9.5968178519016178e-01 -9.6024126080128991e-01 0.0000000000000000e+00  -8.7493982811662252e-01 -8.7483900666081482e-01 0.0000000000000000e+00  1.1703369014085903e-01 1.1643558402901577e-01 0.0000000000000000e+00  2.0923334942844540e-01 2.0941219759116186e-01 0.0000000000000000e+00  8.1118617292692166e-02 8.1365930006013526e-02 0.0000000000000000e+00  -8.0174496849435128e-01 -8.0212873892504322e-01 0.0000000000000000e+00  -9.8561658635568672e-01 -9.8566085158615957e-01 0.0000000000000000e+00  -7.8538683000742460e-01 -7.8542522490686051e-01 0.0000000000000000e+00  -2.8819112315727119e-01 -2.8806945014913687e-01 0.0000000000000000e+00  -5.3474113346155472e-01 -5.3472670934816402e-01 0.0000000000000000e+00  -5.7376968996574607e-01 -5.7378568154376608e-01 0.0000000000000000e+00  -6.3667331003057115e-01 -6.3596752157187719e-01 0.0000000000000000e+00  -5.4140167295509689e-01 -5.4075178708554827e-01 0.0000000000000000e+00  -4.3874620593377506e-01 -4.3953674049244040e-01 0.0000000000000000e+00  -5.4114753335381427e-01 -5.4186106484341523e-01 0.0000000000000000e+00  -6.3608339334710817e-01 -6.3653396133530049e-01 0.0000000000000000e+00  -5.1837753119762298e-01 -5.1853967054474859e-01 0.0000000000000000e+00  -3.7171796113976696e-01 -3.7221063265140875e-01 0.0000000000000000e+00  -5.5145579865680153e-02 -5.5315081645246782e-02 0.0000000000000000e+00  -1.9699496886850512e-01 -1.9788741870503856e-01 0.0000000000000000e+00  -1.9788809277844721e-01 -1.9697972862352284e-01 0.0000000000000000e+00  -5.0915587024654108e-01 -5.0915715271188844e-01 0.0000000000000000e+00  -8.1173577615714776e-01 -8.1095313304958172e-01 0.0000000000000000e+00  -7.2724650721357739e-02 -7.3465156064716972e-02 0.0000000000000000e+00  -2.8308763435349205e-01 -2.8313386869298296e-01 0.0000000000000000e+00  -4.3390860620577271e-01 -4.3286553043044362e-01 0.0000000000000000e+00  -2.5748015612920744e-01 -2.5745963417783629e-01 0.0000000000000000e+00  -1.6500734712721829e-01 -1.6484356055804530e-01 0.0000000000000000e+00  -4.3596554835906048e-01 -4.3588379567648872e-01 0.0000000000000000e+00  -4.5757260988615761e-01 -4.5752697405224241e-01 0.0000000000000000e+00  -6.3834612095924570e-01 -6.3841360612555331e-01 0.0000000000000000e+00  -9.2498496521945395e-01 -9.2486043233127724e-01 0.0000000000000000e+00  -9.5571311259716663e-01 -9.5333565202593984e-01 0.0000000000000000e+00  -8.2524413469487712e-01 -8.2523153989379039e-01 0.0000000000000000e+00  -1.2603909465427598e-01 -1.2619115988609392e-01 0.0000000000000000e+00  1.1665748683795381e-01 1.1917546846597063e-01 0.0000000000000000e+00  -6.5111488935503770e-01 -6.5098842088801834e-01 0.0000000000000000e+00  -9.0965688219099272e-01 -9.0766727405600411e-01 0.0000000000000000e+00  -8.8774573317452177e-01 -8.8706248075187033e-01 0.0000000000000000e+00  -6.7579566969496163e-01 -6.7585008978103711e-01 0.0000000000000000e+00  -7.7371696509368060e-01 -7.7392401121459242e-01 0.0000000000000000e+00  -7.4333497842018570e-01 -7.4335157605733326e-01 0.0000000000000000e+00  -6.2908542251288380e-01 -6.2908659150884993e-01 0.0000000000000000e+00  -2.9942333311394614e-01 -2.9952444919822824e-01 0.0000000000000000e+00  -1.8694775910837062e-02 -1.8545342816035051e-02 0.0000000000000000e+00  -3.4194261567160295e-01 -3.4190373648849715e-01 0.0000000000000000e+00  -7.5580829408628381e-01 -7.5581948965730672e-01 0.0000000000000000e+00  -3.0347525036035616e-01 -3.0272517188279657e-01 0.0000000000000000e+00  2.3985184516023178e-01 2.4257547556457332e-01 0.0000000000000000e+00  -5.9635025957475640e-01 -5.9615819510301704e-01 0.0000000000000000e+00  -7.1025641376125837e-01 -7.1031202124072013e-01 0.0000000000000000e+00  3.6174234222596863e-01 3.5925259605188453e-01 0.0000000000000000e+00  -8.7887491039674925e-01 -8.7883970069075024e-01 0.0000000000000000e+00  -8.3140602748119595e-03 -5.9929258095940373e-03 0.0000000000000000e+00  -4.7658297257337799e-02 -4.6929588030944644e-02 0.0000000000000000e+00  -7.5439077811138677e-01 -7.5514500861780587e-01 0.0000000000000000e+00  -8.6888525387265736e-01 -8.6896073492908910e-01 0.0000000000000000e+00  -2.5603856793956459e-01 -2.5615792372143420e-01 0.0000000000000000e+00  -5.9519411103867204e-01 -5.9513337762789875e-01 0.0000000000000000e+00  -6.8985194762004409e-01 -6.9049465360114359e-01 0.0000000000000000e+00  -7.2084282635309371e-01 -7.2090481218916425e-01 0.0000000000000000e+00  -3.4268908510770624e-01 -3.4272750990905887e-01 0.0000000000000000e+00  -3.7646872436309675e-01 -3.7625917615954990e-01 0.0000000000000000e+00  -9.3132206322824351e-01 -9.3083825253317187e-01 0.0000000000000000e+00  -4.5036774610369495e-01 -4.5040051285677440e-01 0.0000000000000000e+00  -7.6006585585409114e-01 -7.6006359396388457e-01 0.0000000000000000e+00  -9.0684467406630864e-01 -9.0739936526843756e-01 0.0000000000000000e+00  -8.1036931589527517e-01 -8.1036531388823496e-01 0.0000000000000000e+00  -9.0762381606806197e-01 -9.1009977700028755e-01 0.0000000000000000e+00  -8.6246455426791990e-01 -8.6362317761254959e-01 0.0000000000000000e+00  8.6540126487667499e-02 8.5396603804322346e-02 0.0000000000000000e+00  -7.2520711247488698e-03 -8.0268005568005125e-03 0.0000000000000000e+00  3.5930303984274270e-01 3.6173661899025816e-01 0.0000000000000000e+00  3.1491772467114813e-02 3.2399577436340962e-02 0.0000000000000000e+00  -6.5583328024760656e-01 -6.5597007092349502e-01 0.0000000000000000e+00  -4.6039506831539179e-01 -4.6064198826878128e-01 0.0000000000000000e+00  -5.9738695450903423e-01 -5.9743828776490748e-01 0.0000000000000000e+00  -9.6325733196190511e-01 -9.6339102076139049e-01 0.0000000000000000e+00  -9.5345507583873701e-01 -9.5601705783097979e-01 0.0000000000000000e+00  1.7842889229092423e-01 1.7923424323111006e-01 0.0000000000000000e+00  -7.0243097618677652e-01 -7.0241788815004069e-01 0.0000000000000000e+00  -5.2688646101029191e-01 -5.2692034489740169e-01 0.0000000000000000e+00  -4.1001130637602001e-01 -4.1008724617543424e-01 0.0000000000000000e+00  -6.1704831733368914e-01 -6.1706681935254193e-01 0.0000000000000000e+00  -7.7437301818753568e-01 -7.7662779315999786e-01 0.0000000000000000e+00  -3.6379085939665828e-01 -3.6385019189852286e-01 0.0000000000000000e+00  2.1056387901077700e-01 2.0929959708634416e-01 0.0000000000000000e+00  -1.8989341044234845e-01 -1.8974703718956187e-01 0.0000000000000000e+00  -2.8583417096170372e-01 -2.8666502392345944e-01 0.0000000000000000e+00  -5.9294283079977306e-01 -5.9443744202139104e-01 0.0000000000000000e+00  -4.8631696455498058e-01 -4.8765098785031435e-01 0.0000000000000000e+00  -4.8759818406736116e-01 -4.8618624658422172e-01 0.0000000000000000e+00  -5.9445824197528740e-01 -5.9296723067540436e-01 0.0000000000000000e+00  -8.4850388232073770e-01 -8.4785556187058364e-01 0.0000000000000000e+00  -8.5137222697098491e-01 -8.5148144051958319e-01 0.0000000000000000e+00  -7.8551400287924000e-01 -7.8562694542992950e-01 0.0000000000000000e+00  -9.4865113662800316e-01 -9.4963964287841052e-01 0.0000000000000000e+00  -9.1417224033892208e-01 -9.1414637324223313e-01 0.0000000000000000e+00  -1.4500761936687850e-01 -1.4514781081761535e-01 0.0000000000000000e+00  -1.0000263505731135e+00 -1.0028440532862357e+00 0.0000000000000000e+00  -1.0028457013119803e+00 -1.0000008384974484e+00 0.0000000000000000e+00  3.3515377017333876e-02 3.3295697382705575e-02 0.0000000000000000e+00  -8.2805731127507365e-01 -8.2822621213510295e-01 0.0000000000000000e+00  -8.3700886066818481e-01 -8.3702474669709459e-01 0.0000000000000000e+00  -8.0001533615369991e-01 -7.9981432542191355e-01 0.0000000000000000e+00  -6.9081278781681821e-01 -6.9088717513693521e-01 0.0000000000000000e+00  -3.5748044533124557e-01 -3.5752306454954025e-01 0.0000000000000000e+00  -4.7139752335800078e-01 -4.7127967593611320e-01 0.0000000000000000e+00  -1.3316815975247209e-01 -1.3222664124594899e-01 0.0000000000000000e+00  -1.3230942611919469e-01 -1.3327450104856212e-01 0.0000000000000000e+00  -2.5591111474624301e-01 -2.5364387234779479e-01 0.0000000000000000e+00  -3.7472498519925690e-01 -3.7259157015566713e-01 0.0000000000000000e+00  -6.0687652563562525e-03 -8.3476943378393564e-03 0.0000000000000000e+00  -1.3315255176307050e-01 -1.3098451732186556e-01 0.0000000000000000e+00  -2.5372282368815546e-01 -2.5592056323264961e-01 0.0000000000000000e+00  -1.3088288315647406e-01 -1.3317547570151381e-01 0.0000000000000000e+00  -6.8901715900629112e-01 -6.9132448792657697e-01 0.0000000000000000e+00  -3.7273033593516275e-01 -3.7469341726498095e-01 0.0000000000000000e+00  -8.4754441650088830e-01 -8.4993551132567624e-01 0.0000000000000000e+00  -9.8447660764210165e-01 -9.8711926444625153e-01 0.0000000000000000e+00  -9.8732066390087980e-01 -9.8443670184955190e-01 0.0000000000000000e+00  -8.5013431731894173e-01 -8.4771283647726492e-01 0.0000000000000000e+00  -7.7631481699860649e-01 -7.7439416391489835e-01 0.0000000000000000e+00  -6.9129267890966228e-01 -6.8910751161630435e-01 0.0000000000000000e+00  1.1902193186456955e-01 1.1665411290724342e-01 0.0000000000000000e+00  2.4261672199648993e-01 2.3989073872173755e-01 0.0000000000000000e+00  -1.0720689440106823e-01 -1.0753600753133784e-01 0.0000000000000000e+00  -7.7663492305857829e-01 -7.7550664215963683e-01 0.0000000000000000e+00  2.9813164028433647e-01 2.9813928072336615e-01 0.0000000000000000e+00  -3.2959233546131578e-01 -3.2936867908460482e-01 0.0000000000000000e+00  -5.9238299895667645e-01 -5.9222618127839011e-01 0.0000000000000000e+00  -6.8354276811343517e-01 -6.8346320505974012e-01 0.0000000000000000e+00  -5.9224036390934254e-01 -5.9232244794439670e-01 0.0000000000000000e+00  -3.9486479091071608e-01 -3.9482606139348753e-01 0.0000000000000000e+00  -9.8044157213083394e-01 -9.8207423955293249e-01 0.0000000000000000e+00  -9.5664702448012118e-01 -9.5531721738383024e-01 0.0000000000000000e+00  -2.0772150199689082e-01 -2.0771986187485864e-01 0.0000000000000000e+00  -2.1372574166200622e-01 -2.1357185505448884e-01 0.0000000000000000e+00  -4.5538070399235453e-01 -4.5536836615562271e-01 0.0000000000000000e+00  -2.2305998724414697e-01 -2.2319047340489426e-01 0.0000000000000000e+00  -9.4728727404113588e-02 -9.4538063839549352e-02 0.0000000000000000e+00  -8.9860751362391023e-01 -8.9862483321044051e-01 0.0000000000000000e+00  -5.1899924623050342e-01 -5.1894335597206531e-01 0.0000000000000000e+00  -4.5438821429344689e-01 -4.5434326282258625e-01 0.0000000000000000e+00  -6.8341121719921838e-01 -6.8348945418360385e-01 0.0000000000000000e+00  1.0565455184667656e-01 1.0578460499055355e-01 0.0000000000000000e+00  -4.9973014036444097e-01 -4.9981882249039677e-01 0.0000000000000000e+00  -3.8296553249875692e-01 -3.8313388056661851e-01 0.0000000000000000e+00  -4.6904476563780317e-01 -4.6887306582277993e-01 0.0000000000000000e+00  -3.7498872752786366e-01 -3.7380181979945859e-01 0.0000000000000000e+00  -5.1981526618250873e-01 -5.1982701965372935e-01 0.0000000000000000e+00  -4.7824114080420532e-02 -4.7708453920951334e-02 0.0000000000000000e+00  -1.0844331158983977e-01 -1.0830702202236532e-01 0.0000000000000000e+00  -7.1743644116832495e-01 -7.1728401487586002e-01 0.0000000000000000e+00  -8.8638033932323412e-01 -8.8651206121969450e-01 0.0000000000000000e+00  -4.7300148937564335e-01 -4.7302463622905494e-01 0.0000000000000000e+00  -6.0491022506623360e-01 -6.0496770268990840e-01 0.0000000000000000e+00  1.4514286928860906e-01 1.4514079932690230e-01 0.0000000000000000e+00  2.5337306653217262e-01 2.5494679457328268e-01 0.0000000000000000e+00  -3.8106708798616173e-01 -3.8114474790128183e-01 0.0000000000000000e+00  -1.9443827511541384e-01 -1.9434537841253444e-01 0.0000000000000000e+00  -2.4075520791443275e-01 -2.3969426124763329e-01 0.0000000000000000e+00  -8.9531672034979648e-01 -8.9650595043268155e-01 0.0000000000000000e+00  -6.5409362003347660e-01 -6.5408885282089024e-01 0.0000000000000000e+00  -5.9980617217818089e-01 -5.9985801545262651e-01 0.0000000000000000e+00  -8.5678582441044523e-02 -8.5837977912628913e-02 0.0000000000000000e+00  -2.6968139798714297e-01 -2.6977760952811514e-01 0.0000000000000000e+00  -2.5619643430168454e-01 -2.5609748017294737e-01 0.0000000000000000e+00  -7.0985814097250155e-01 -7.0878959890192994e-01 0.0000000000000000e+00  -4.7327154597039606e-01 -4.7314189697433345e-01 0.0000000000000000e+00  -6.0573050379212434e-01 -6.0573884649779186e-01 0.0000000000000000e+00  -5.6570470342805690e-01 -5.6571610980433984e-01 0.0000000000000000e+00  -1.8287693318955814e-01 -1.8272749265716967e-01 0.0000000000000000e+00  -6.5452056730125263e-01 -6.5457889524450841e-01 0.0000000000000000e+00  -2.6726417927747309e-01 -2.6732161214552130e-01 0.0000000000000000e+00  1.5228465438210712e-01 1.5389013698299916e-01 0.0000000000000000e+00  1.0325262160761499e-01 1.0490737264756422e-01 0.0000000000000000e+00  -5.1125603524434515e-01 -5.1129133421410800e-01 0.0000000000000000e+00  -8.6244118975891282e-01 -8.6242985911463443e-01 0.0000000000000000e+00  -6.3680706981692281e-01 -6.3678860612288035e-01 0.0000000000000000e+00  -5.1057214073769974e-01 -5.1063258910106191e-01 0.0000000000000000e+00  -9.4765743917287293e-01 -9.4745397151003330e-01 0.0000000000000000e+00  -9.8439420877806993e-01 -9.8215425802228384e-01 0.0000000000000000e+00  -5.3032372175685050e-01 -5.3044965380110720e-01 0.0000000000000000e+00  -3.5921080653254478e-01 -3.5928989872091638e-01 0.0000000000000000e+00  -4.5574914514126835e-01 -4.5585037925496780e-01 0.0000000000000000e+00  -4.0964358648147464e-01 -4.0951401482090916e-01 0.0000000000000000e+00  -9.2080221589736888e-01 -9.1962606607196429e-01 0.0000000000000000e+00  2.3498851875605038e-02 2.3662853092877429e-02 0.0000000000000000e+00  -7.6504559541843820e-01 -7.6510631351375546e-01 0.0000000000000000e+00  -8.4384963885519926e-01 -8.4548358674953805e-01 0.0000000000000000e+00  -8.0027519777881517e-01 -8.0191822361115572e-01 0.0000000000000000e+00  -7.8448280850959606e-01 -7.8434781850273039e-01 0.0000000000000000e+00  -7.5203610166706869e-01 -7.5191556102179102e-01 0.0000000000000000e+00  -5.0545139193726507e-01 -5.0509130804248847e-01 0.0000000000000000e+00  -4.7133945518933340e-01 -4.7018638217033393e-01 0.0000000000000000e+00  -3.5389832811839655e-01 -3.5379602794928661e-01 0.0000000000000000e+00  -2.3527988778719930e-01 -2.3531678735218114e-01 0.0000000000000000e+00  -9.6846502329972384e-01 -9.7033088366661757e-01 0.0000000000000000e+00  -9.3765603907526462e-01 -9.3799587718139921e-01 0.0000000000000000e+00  -9.5019150753255088e-01 -9.5035887838615096e-01 0.0000000000000000e+00  -3.0100489651420825e-01 -3.0106226291701521e-01 0.0000000000000000e+00  -2.7549648419757661e-01 -2.7545480679573270e-01 0.0000000000000000e+00