<?xml version="1.0"?>
<VTKFile type="UnstructuredGrid"  version="0.1"  >
<UnstructuredGrid>
<Piece  NumberOfPoints="1385" NumberOfCells="2640">
<Points>
<DataArray  type="Float64"  NumberOfComponents="3"  format="ascii">0 0 0  1 0 0  1 1 0  0 1 0  0.5 0 0  1 0.5 0  0.5 1 0  0 0.5 0  0.5 0.5 0  0 0.25 0  0.25 0 0  0.25 1 0  0 0.75 0  1 0.25 0  0.75 0 0  1 0.75 0  0.75 1 0  0.7083333333333333 0.2916666666666667 0  0.2916666666666666 0.7083333333333334 0  0.375 0.25 0  0.75 0.625 0  0.2569444444444444 0.4652777777777778 0  0.5366379310344828 0.7535919540229885 0  0.1875 0.1875 0  0.8125 0.8125 0  0.869047619047619 0.375 0  0.1450441919191919 0.6052714646464646 0  0.375 0.8690476190476191 0  0.5526960784313725 0.1825980392156862 0  0.8385416666666666 0.1614583333333334 0  0.1614583333333333 0.8385416666666667 0  0.6736111111111112 0.4652777777777778 0  0.1367521367521368 0.3477564102564102 0  0.6570970491253563 0.8648656830417855 0  0.5102479397556124 0.3386260301221938 0  0.3654513888888889 0.5737847222222222 0  0.6929750044954185 0.1362784921584263 0  0.388576102743835 0.411911725237599 0  0.6091269841269842 0.5942460317460317 0  0.875 0.6875 0  0.427278890279516 0.119889445139758 0  0.8544456845238095 0.5213913690476191 0  0.125 0 0  0 0.125 0  1 0.875 0  0.875 1 0  0.1280008648150532 0.4769292340226777 0  0.2695382451711197 0.3321750950221553 0  0.7031567235715964 0.7447810921428012 0  0.625 0 0  0.375 0 0  0.125 1 0  0.875 0 0  0 0.375 0  0 0.625 0  1 0.375 0  0.375 1 0  1 0.125 0  0 0.875 0  0.625 1 0  1 0.625 0  0.2979288363930608 0.1201429454643536 0  0.410919540229885 0.7484605911330049 0  0.5325041980395562 0.878905151526474 0  0.4831670727569156 0.6331060043826487 0  0.1735997378973042 0.7204747378973043 0  0.2534919507575758 0.5772372159090909 0  0.2633928571428572 0.8876488095238095 0  0.8199404761904761 0.2730654761904762 0  0.75830270586982 0.3919383189517417 0  0.5750282248382511 0.4237522353023667 0  0.6008360210023379 0.2794828358598495 0  0.08163442644334186 0.6821295860397322 0  0.08333333333333333 0.1875 0  0.2028380815996574 0.08844602719988583 0  0.2766521142611967 0.2325436572164097 0  0.90625 0.78125 0  0.890625 0.890625 0  0.7545696325008384 0.8973565441669461 0  0.5625 0.08086590340834317 0  0.09077380952380953 0.09077380952380952 0  0.4610923478694773 0.209034015149656 0  0.7542527598351648 0.5248380520595106 0  0.6459235536037465 0.3619913988405765 0  0.7560381768882634 0.20506142233852 0  0.07073252688172042 0.8125 0  0.0924753097241701 0.9078102849914793 0  0.9292674731182795 0.1875 0  0.9075246902758297 0.09218971500852073 0  0.8125 0.07073252688172045 0  0.2400955776842301 0.7869705776842302 0  0.9121050213379069 0.2781978201831695 0  0.7916878157143976 0.7239689078571988 0  0.9345238095238094 0.4375 0  0.4375 0.9345238095238095 0  0.3725616989755203 0.6651895248862173 0  0.06536271996350887 0.5625 0  0.9348362560379583 0.5625 0  0.456646798987055 0.8277247094351965 0  0.1875 0.9355758238725954 0  0.6169761231634859 0.6939779188977889 0  0.6226854751147515 0.7827911461419014 0  0.3305695598137626 0.7901697871282585 0  0.5865305325818898 0.5101085479043448 0  0.6622701297028378 0.2177663989757395 0  0.1354166666666667 0.2591702279202279 0  0 0.3125 0  0.2094429575680048 0.3936361846162499 0  0.836666296419157 0.607917407161686 0  0.6875 1 0  0.214261555450504 0.6492551722020035 0  0 0.4375 0  0.07731537126068377 0.40625 0  0.3427725432967068 0.4879566233699599 0  0.3550792513951871 0.3331953632609953 0  0.4462473953896857 0.2887834789342508 0  0.4747801464819794 0.417386052030127 0  0.8229836475148948 0.4443292349237342 0  0.7322605135514757 0.8199240278289671 0  0.6756431877205955 0.5468989748126787 0  0.1968419507215863 0.5194573482612496 0  0.3285590277777778 0.9345238095238095 0  0.8125 1 0  0.4198917601920009 0.5134893045331258 0  0.5232405503206691 0.2595791787880157 0  1 0.9375 0  0.1987510870015086 0.3025185951894431 0  0.5625 1 0  0.6005390654136388 0.9228110509230952 0  0.6411254848194414 0.07704872765442942 0  0.3357233162523242 0.1855113224530532 0  0.6730653396610877 0.6393887462324165 0  0.310966987234063 0.6240019765311626 0  0.7368737836204349 0.07457755202327881 0  0.6192316414418171 0.1485238406378594 0  0.5432429670607106 0.678552703844006 0  0.4754371679695679 0.7103946803120881 0  0.07501324890749672 0.3043839897335739 0  0.5358146975860403 0.5688321463205916 0  0.3115271739500156 0.3982137365971444 0  0.3625191397122174 0.0767854603650549 0  0.5024029442563831 0.1264128223758444 0  0.4375 0 0  0.4699946908887376 0.06379961173775725 0  0.9375 0.71875 0  0.9272105898044465 0.635671179608893 0  0.9375 1 0  0.6690971819568612 0.9331530898202766 0  0.1073454944778885 0.7499206387638554 0  0.8699082999280406 0.2232403652524313 0  0.5773118091863964 0.3548027349159383 0  0.1354166666666667 0.1428571428571428 0  0.3125 0 0  0.8241684193077341 0.9257452995055244 0  0.4352314948354036 0.3586940847489378 0  0.4351301473778832 0.5819726043539077 0  0.8073232928518163 0.3419398170341962 0  0.7775949246947366 0.1298519409204575 0  0.6875 0 0  0.7413513991851041 0.457933324954483 0  0.939453125 0.841796875 0  0.5630355154606987 0.8171875156478349 0  0.9345238095238095 0.3461466592368577 0  0.9375 0 0  1 0.0625 0  0.0625 1 0  0 0.9375 0  0.06552178593177167 0.4969053669623468 0  0.1424866619031703 0.4130277709291224 0  0.1275287182444726 0.5422946908002588 0  0.2637686595586339 0.06413888464529549 0  0.2524263535491086 0.1697437503243817 0  0.7367218397988525 0.6888573970660841 0  0.0625 0 0  0 0.0625 0  0.8463594539285995 0.7578283617857982 0  0.3128751192101563 0.2851997374369947 0  0.4015281788351144 0.1806421385113692 0  0.1910251795116588 0.4553332197174453 0  0.287797471442006 0.5222621440543902 0  0.3962628745986055 0.8097380085535307 0  0.3505895299554843 0.7304878890838692 0  0.5019151500495276 0.9356042615328103 0  0.9374389419410134 0.4999931039076005 0  0.3125 1 0  0.1875 1 0  1 0.5625 0  0.4375 1 0  1 0.3125 0  1 0.4375 0  0.8125 0 0  1 0.1875 0  0.5625 0 0  0.1875 0 0  0 0.1875 0  0 0.5625 0  0 0.6875 0  0 0.8125 0  1 0.6875 0  1 0.8125 0  0.8021696218581627 0.6612893947866073 0  0.06154922295426143 0.6239401126946708 0  0.9359375 0.9359375 0  0.4666158024849896 0.7691515918155014 0  0.2318201265217025 0.7064974250277525 0  0.1565954253579966 0.6635489312486841 0  0.1598132503680848 0.7787147500325552 0  0.3146529991605639 0.8510876378205265 0  0.1461873209418733 0.05982804528877814 0  0.06109554988524315 0.2446551776247686 0  0.8054950308560754 0.5564226538848541 0  0.470541749491976 0.8853316336952531 0  0.6948472567465137 0.4042308563372457 0  0.8802828472348889 0.4658893256343853 0  0.6788075634946739 0.7974194205806069 0  0.2155048659603867 0.2428201584940968 0  0.8131223143423806 0.2132171049028394 0  0.4330798005432235 0.6671274900735726 0  0.6015279126162613 0.2187368078743274 0  0.8061636571464289 0.8703766630361714 0  0.7008230445061776 0.3478568388444072 0  0.8638466246958771 0.3147095987735538 0  0.204801534004265 0.8789209409594009 0  0.2449006736431132 0.9424182882803838 0  0.7611268409371427 0.2643056884799992 0  0.7552800864046191 0.7678006649959446 0  0.5983639638906616 0.864113435029236 0  0.1956559506814437 0.577281203577426 0  0.3527670268164207 0.1320469097565204 0  0.7530364577483248 0.3262386077083089 0  0.4535919187979363 0.4690107087451527 0  0.8824869791666666 0.8336588541666666 0  0.8814453125 0.9451171875 0  0.5582987942628019 0.622421666543858 0  0.6817532446064828 0.6939001801354731 0  0.3830295138888889 0.9450968952922078 0  0.4140603937012541 0.05211333372716105 0  0.5535864501303013 0.3060591985391672 0  0.6560130086346878 0.2729726562211558 0  0.890203140221684 0.5948314305427268 0  0.7043857725999024 0.593980890020804 0  0.5105843922695152 0.8016828014338627 0  0.05365910753708378 0.7315110031682004 0  0.616904573672261 0.4621186633436136 0  0.5338511646455415 0.387875898899613 0  0.5231769258947843 0.4477682463140762 0  0.650302973237622 0.7370722302085519 0  0.3927483139621257 0.4662414504529014 0  0.8034595960585199 0.4972538342758211 0  0.7738337841682438 0.9496376207663251 0  0.7193737507158268 0.954685447650112 0  0.482525916480686 0.5528257169991676 0  0.2533501157346781 0.2809495420003238 0  0.3118487924482243 0.5702930126570319 0  0.6257598847669529 0.4104163315430518 0  0.1354166666666667 0.1955605158730158 0  0.04166666666666666 0.15625 0  0.3956448985530264 0.6174149462065157 0  0.8102897701818546 0.3938784238208349 0  0.2641154190013625 0.8344469561943118 0  0.642852220770013 0.5068794586563659 0  0.05271458179508221 0.355846947336007 0  0.7021551360070266 0.8921457280225779 0  0.5692125776683765 0.1328512638850284 0  0.5206162811937602 0.04865158770992991 0  0.6001838442201555 0.04540556991297563 0  0.2597716608242787 0.4118346398477178 0  0.4040584599473195 0.3179589136784675 0  0.1480337679295207 0.8941560631483065 0  0.1344356707112281 0.9466251177415842 0  0.7114696411829317 0.4983917389078826 0  0.7585704698442475 0.5751926345944629 0  0.2189131956390871 0.04022068508159698 0  0.2476935455192043 0.1123642267635843 0  0.185995005654517 0.1365524537205238 0  0.6223414373308711 0.643380839165121 0  0.5732602596637543 0.7190051747306219 0  0.268358222364537 0.6586246524467934 0  0.3265879848129173 0.2369791782191225 0  0.1267095595787346 0.7034787238999181 0  0.1115202922226038 0.6421997933884982 0  0.3128688392940203 0.07260997451790079 0  0.550724900485678 0.9253360991633187 0  0.7142608810459105 0.2384904702214873 0  0.7045869185243887 0.1871826897887429 0  0.890625 0.734375 0  0.953125 0.765625 0  0.2111812642821677 0.8286209446459138 0  0.9590293078204457 0.09375 0  0.953431269039847 0.1435719386408004 0  0.04097069217955424 0.90625 0  0.04656873096015299 0.8564280613591996 0  0.1078743037981226 0.8541621766048062 0  0.8921256962018773 0.1458378233951939 0  0.8521576979194619 0.1084496634207678 0  0.8655663982740958 0.05464346096571447 0  0.04005659640905543 0.09375 0  0.1001448316533417 0.04246776244228261 
[...]
<PointData  Vectors="f_8394-3"> 
<DataArray  type="Float64"  Name="f_8394-3"  NumberOfComponents="3" format="ascii">-1.0931652808222383e+00 -1.0858225051341266e+00 0.0000000000000000e+00  -5.3682981995781087e-01 -5.4145527118691450e-01 0.0000000000000000e+00  4.5136754814973462e-01 4.5136754814947422e-01 0.0000000000000000e+00  -5.5162118448502639e-01 -5.2891560445867380e-01 0.0000000000000000e+00  -8.7227033269438781e-01 -8.7728083140541391e-01 0.0000000000000000e+00  -5.5707333568947595e-02 -7.3330833957125238e-02 0.0000000000000000e+00  -7.3920454396558963e-02 -5.2793526781249281e-02 0.0000000000000000e+00  -8.8446209964204336e-01 -8.7709702085125274e-01 0.0000000000000000e+00  -5.3911227669183615e-01 -5.3972672828597368e-01 0.0000000000000000e+00  -9.7528361676459707e-01 -9.7294432412049292e-01 0.0000000000000000e+00  -9.7683598230192092e-01 -9.8509078865694855e-01 0.0000000000000000e+00  -3.1400110756373856e-01 -3.0246400154903746e-01 0.0000000000000000e+00  -7.5448046777693267e-01 -7.1744498687156089e-01 0.0000000000000000e+00  -3.0918197866495156e-01 -3.1511244153852508e-01 0.0000000000000000e+00  -7.2278211015764526e-01 -7.4864265217201720e-01 0.0000000000000000e+00  1.9215393441642803e-01 1.7956384541611231e-01 0.0000000000000000e+00  1.7951421083248786e-01 1.9287364652422576e-01 0.0000000000000000e+00  -5.3948583773308734e-01 -5.4197372703008195e-01 0.0000000000000000e+00  -5.3761313598781246e-01 -5.4094588772193675e-01 0.0000000000000000e+00  -8.1017017950077497e-01 -8.1228251036957932e-01 0.0000000000000000e+00  -1.9672179060644265e-01 -1.9568068113626946e-01 0.0000000000000000e+00  -7.6409331130220237e-01 -7.4286914752542188e-01 0.0000000000000000e+00  -2.7857549937784276e-01 -2.7674674101976160e-01 0.0000000000000000e+00  -9.2722760958581329e-01 -9.3421794184592921e-01 0.0000000000000000e+00  5.2063837951040276e-02 5.2524751731288268e-02 0.0000000000000000e+00  -3.1898007339211298e-01 -3.1803343882635626e-01 0.0000000000000000e+00  -7.2454117399462070e-01 -7.2892141050174464e-01 0.0000000000000000e+00  -3.1996206541502920e-01 -3.1943260021016395e-01 0.0000000000000000e+00  -7.3870143076412553e-01 -7.4476915070613847e-01 0.0000000000000000e+00  -5.4040832838806796e-01 -5.3990785329766633e-01 0.0000000000000000e+00  -5.4291257402108950e-01 -5.3788131654955496e-01 0.0000000000000000e+00  -4.1691450283774578e-01 -4.1895661998775718e-01 0.0000000000000000e+00  -8.9201892710451447e-01 -8.7885179668385860e-01 0.0000000000000000e+00  -4.8758223327258543e-02 -4.9526633656495907e-02 0.0000000000000000e+00  -6.6305460005089389e-01 -6.6146847781038720e-01 0.0000000000000000e+00  -5.8761537806975006e-01 -5.9083442166540201e-01 0.0000000000000000e+00  -6.7649520214511671e-01 -6.7509238492875268e-01 0.0000000000000000e+00  -6.9038745538897595e-01 -6.9824579555126631e-01 0.0000000000000000e+00  -3.6063520078157352e-01 -3.5794451819092932e-01 0.0000000000000000e+00  -7.6796582007758046e-03 -8.9011825922943912e-03 0.0000000000000000e+00  -8.5427507091064292e-01 -8.5366710294959136e-01 0.0000000000000000e+00  -1.9339159809606188e-01 -1.9516515405979495e-01 0.0000000000000000e+00  -9.9561669204538694e-01 -1.0155896657225512e+00 0.0000000000000000e+00  -1.0309859181495791e+00 -9.7461500509068189e-01 0.0000000000000000e+00  3.1635644703626659e-01 2.9995801197705735e-01 0.0000000000000000e+00  2.9675112717958024e-01 3.0815132627466568e-01 0.0000000000000000e+00  -8.1669624359786508e-01 -8.2121705040644422e-01 0.0000000000000000e+00  -8.2472378363423648e-01 -8.2562854812366782e-01 0.0000000000000000e+00  -1.2463925133919249e-01 -1.2322650836359426e-01 0.0000000000000000e+00  -8.1695183697078211e-01 -8.1847801697612999e-01 0.0000000000000000e+00  -9.2978900138998199e-01 -9.4630692993077725e-01 0.0000000000000000e+00  -4.3192763538022283e-01 -4.2334536202144307e-01 0.0000000000000000e+00  -6.4147468806036523e-01 -6.5377953753628393e-01 0.0000000000000000e+00  -9.4751366466513320e-01 -9.3522767910760474e-01 0.0000000000000000e+00  -8.0855543273245600e-01 -7.9792124801356890e-01 0.0000000000000000e+00  -1.8179631272674207e-01 -1.9436085796053146e-01 0.0000000000000000e+00  -1.9632276359404721e-01 -1.7336288455698518e-01 0.0000000000000000e+00  -4.2053938814349623e-01 -4.3089360907623070e-01 0.0000000000000000e+00  -6.5251119084630216e-01 -6.4189678300506048e-01 0.0000000000000000e+00  5.6701057736780830e-02 7.1456187660528803e-02 0.0000000000000000e+00  6.8421185659617426e-02 5.4173721343184156e-02 0.0000000000000000e+00  -9.1737862041551754e-01 -9.1501955586711670e-01 0.0000000000000000e+00  -3.9901350752447007e-01 -4.0132001536203210e-01 0.0000000000000000e+00  -1.5753473485879665e-01 -1.6012906757947823e-01 0.0000000000000000e+00  -4.3918202008646257e-01 -4.3827821287004420e-01 0.0000000000000000e+00  -6.2454690651487133e-01 -6.2543202800358444e-01 0.0000000000000000e+00  -6.7125489861464371e-01 -6.7611479001058938e-01 0.0000000000000000e+00  -4.0868765051978106e-01 -4.0664558003425089e-01 0.0000000000000000e+00  -4.5804163492066646e-01 -4.5963432762193052e-01 0.0000000000000000e+00  -4.0497576941553248e-01 -4.0958913773262801e-01 0.0000000000000000e+00  -5.3857538582586872e-01 -5.4299078781458054e-01 0.0000000000000000e+00  -6.3350952833589980e-01 -6.3537018940712997e-01 0.0000000000000000e+00  -7.2317925891733759e-01 -7.2170119673601230e-01 0.0000000000000000e+00  -9.5338942998099097e-01 -9.5902554486659342e-01 0.0000000000000000e+00  -9.5676770015490065e-01 -9.5616703519861268e-01 0.0000000000000000e+00  -8.7508786705959940e-01 -8.6790210956629976e-01 0.0000000000000000e+00  1.1539539220816258e-01 1.1551088394938053e-01 0.0000000000000000e+00  2.0949485452368621e-01 2.1086974091166724e-01 0.0000000000000000e+00  8.0452479306438382e-02 7.9035525247192762e-02 0.0000000000000000e+00  -7.9979320004123755e-01 -8.0334231298015668e-01 0.0000000000000000e+00  -9.8570015742268402e-01 -9.8188613050055062e-01 0.0000000000000000e+00  -7.7975146226440284e-01 -7.8237181894788677e-01 0.0000000000000000e+00  -2.8738927177157642e-01 -2.8904638248940978e-01 0.0000000000000000e+00  -5.3341069561200305e-01 -5.3039333021260993e-01 0.0000000000000000e+00  -5.7699744394269370e-01 -5.7140439389370123e-01 0.0000000000000000e+00  -6.3570298962340743e-01 -6.2686087009357039e-01 0.0000000000000000e+00  -5.3995729691666861e-01 -5.4033112739131250e-01 0.0000000000000000e+00  -4.3910227461591117e-01 -4.3922009707133058e-01 0.0000000000000000e+00  -5.4009262978741956e-01 -5.4234421537843913e-01 0.0000000000000000e+00  -6.3522343613201371e-01 -6.3418436123903732e-01 0.0000000000000000e+00  -5.1099558187227601e-01 -5.1489951073428830e-01 0.0000000000000000e+00  -3.6991319801375722e-01 -3.7605290419879850e-01 0.0000000000000000e+00  -5.6463722221049006e-02 -5.4259281989783595e-02 0.0000000000000000e+00  -1.9766279397429365e-01 -1.9670723615551602e-01 0.0000000000000000e+00  -1.9789584884372591e-01 -1.9521853039220821e-01 0.0000000000000000e+00  -5.0304456773182449e-01 -5.0492041787447484e-01 0.0000000000000000e+00  -8.1513266347420132e-01 -8.1255127442382158e-01 0.0000000000000000e+00  -7.3086991786334210e-02 -7.0663220818482031e-02 0.0000000000000000e+00  -2.8407367028764047e-01 -2.7930666932214410e-01 0.0000000000000000e+00  -4.3325996211581408e-01 -4.3507195600076715e-01 0.0000000000000000e+00  -2.5874821619997018e-01 -2.5784609629810440e-01 0.0000000000000000e+00  -1.6749106642076289e-01 -1.6387328999519837e-01 0.0000000000000000e+00  -4.3887949082105832e-01 -4.3564069261797778e-01 0.0000000000000000e+00  -4.5511202698451370e-01 -4.5520711809188569e-01 0.0000000000000000e+00  -6.3759406020570064e-01 -6.3869211828723083e-01 0.0000000000000000e+00  -9.2814956881002408e-01 -9.2292921660782778e-01 0.0000000000000000e+00  -9.7751910673686127e-01 -9.5112898865109585e-01 0.0000000000000000e+00  -8.1630279063104605e-01 -8.2220992031774531e-01 0.0000000000000000e+00  -1.2483565918386014e-01 -1.2722593006460201e-01 0.0000000000000000e+00  1.1607407575050860e-01 1.3012802104666227e-01 0.0000000000000000e+00  -6.4990599647623193e-01 -6.4930341210198184e-01 0.0000000000000000e+00  -9.0764001418853757e-01 -9.0727784269131551e-01 0.0000000000000000e+00  -8.8961561958855206e-01 -8.8521100811733922e-01 0.0000000000000000e+00  -6.7509345777748975e-01 -6.7194059358689517e-01 0.0000000000000000e+00  -7.7795484012510019e-01 -7.7884461462868415e-01 0.0000000000000000e+00  -7.4390829180720119e-01 -7.4185231027439635e-01 0.0000000000000000e+00  -6.2720049986564952e-01 -6.2920888290914212e-01 0.0000000000000000e+00  -3.0036886253670714e-01 -2.9824752494366508e-01 0.0000000000000000e+00  -1.9492696043762168e-02 -1.7200253983098504e-02 0.0000000000000000e+00  -3.3920067317649127e-01 -3.4185891424237030e-01 0.0000000000000000e+00  -7.5696410354427002e-01 -7.6317147807511387e-01 0.0000000000000000e+00  -3.0099461470906169e-01 -3.0424971029656217e-01 0.0000000000000000e+00  2.3977909206697479e-01 2.5846356343664256e-01 0.0000000000000000e+00  -5.9854823295137671e-01 -5.9502420877351692e-01 0.0000000000000000e+00  -7.0952253550569822e-01 -7.0926514068279656e-01 0.0000000000000000e+00  3.8409631519569776e-01 3.5973155960185205e-01 0.0000000000000000e+00  -8.8298893053837324e-01 -8.7853355023034585e-01 0.0000000000000000e+00  -8.1280733796407871e-03 3.3316583611584481e-03 0.0000000000000000e+00  -4.9852990478385151e-02 -4.7102973246779714e-02 0.0000000000000000e+00  -7.4930419057468001e-01 -7.5206466929930749e-01 0.0000000000000000e+00  -8.6806074267885203e-01 -8.6754387206140515e-01 0.0000000000000000e+00  -2.5459857298737149e-01 -2.5616344800367530e-01 0.0000000000000000e+00  -5.8792085237396197e-01 -5.8979549914635754e-01 0.0000000000000000e+00  -6.9110914981610261e-01 -6.9035135081945853e-01 0.0000000000000000e+00  -7.1436112047242561e-01 -7.2182141582521231e-01 0.0000000000000000e+00  -3.4313917512052433e-01 -3.4506943314870964e-01 0.0000000000000000e+00  -3.7683808521363071e-01 -3.7751949480351421e-01 0.0000000000000000e+00  -9.3088557316069709e-01 -9.3018462632108512e-01 0.0000000000000000e+00  -4.5040021444531286e-01 -4.5010500389386920e-01 0.0000000000000000e+00  -7.6627482866424068e-01 -7.6475249049900040e-01 0.0000000000000000e+00  -9.0474929549046190e-01 -9.0655217954467249e-01 0.0000000000000000e+00  -8.1612163605413113e-01 -8.1560243730269433e-01 0.0000000000000000e+00  -9.1185970913733216e-01 -9.1424797957071924e-01 0.0000000000000000e+00  -8.7023279951785515e-01 -8.6230689864714138e-01 0.0000000000000000e+00  8.5699418112595876e-02 8.6043000674242420e-02 0.0000000000000000e+00  -7.1735085436580373e-03 -8.2574050907335307e-03 0.0000000000000000e+00  3.5368495522580595e-01 3.9416405384202946e-01 0.0000000000000000e+00  3.1019772753728345e-02 3.0728900856419265e-02 0.0000000000000000e+00  -6.4609909022484313e-01 -6.5642311485650628e-01 0.0000000000000000e+00  -4.6332245022474172e-01 -4.6048674276265678e-01 0.0000000000000000e+00  -5.9889621376691382e-01 -5.9739748535244419e-01 0.0000000000000000e+00  -9.6388437945144179e-01 -9.6714124223680553e-01 0.0000000000000000e+00  -9.4894054634528602e-01 -9.5663456141480696e-01 0.0000000000000000e+00  1.7825573261196198e-01 1.7997562176713522e-01 0.0000000000000000e+00  -6.9981091528364758e-01 -6.9901473664777203e-01 0.0000000000000000e+00  -5.2498376166816030e-01 -5.2380620456653593e-01 0.0000000000000000e+00  -4.1068846348483223e-01 -4.1162545210589541e-01 0.0000000000000000e+00  -6.1641030718116963e-01 -6.1580637958126805e-01 0.0000000000000000e+00  -7.7203106316993908e-01 -7.8809685063137258e-01 0.0000000000000000e+00  -3.6058765017383920e-01 -3.6473845535672722e-01 0.0000000000000000e+00  2.0808091545486052e-01 2.0925049746552019e-01 0.0000000000000000e+00  -1.8944124670478038e-01 -1.8920176926822252e-01 0.0000000000000000e+00  -2.8594358607694248e-01 -2.8289194914261884e-01 0.0000000000000000e+00  -5.9194903366982354e-01 -6.0356058542041591e-01 0.0000000000000000e+00  -4.7809992261869605e-01 -4.8787876348685666e-01 0.0000000000000000e+00  -4.8662232134964334e-01 -4.7593579929537033e-01 0.0000000000000000e+00  -6.1139483783527704e-01 -5.7989575536582261e-01 0.0000000000000000e+00  -8.4664588983245792e-01 -8.4503434474792316e-01 0.0000000000000000e+00  -8.5290549550898631e-01 -8.4914611701958997e-01 0.0000000000000000e+00  -7.9048256669444927e-01 -7.8499293998055475e-01 0.0000000000000000e+00  -9.4653952304052424e-01 -9.4495156993920515e-01 0.0000000000000000e+00  -9.1805606784444072e-01 -9.1516311975705600e-01 0.0000000000000000e+00  -1.4464046163687266e-01 -1.4737282819670278e-01 0.0000000000000000e+00  -1.0018288199081711e+00 -1.0220451611268093e+00 0.0000000000000000e+00  -1.0126413784587305e+00 -9.9644382267434539e-01 0.0000000000000000e+00  3.4219905628190314e-02 3.2896022483271753e-02 0.0000000000000000e+00  -8.3017774889592155e-01 -8.2773819283104078e-01 0.0000000000000000e+00  -8.3376868112384295e-01 -8.3395459207082923e-01 0.0000000000000000e+00  -8.0480902252074715e-01 -7.9493603766466925e-01 0.0000000000000000e+00  -6.8915086176200635e-01 -6.9004045268949721e-01 0.0000000000000000e+00  -3.5829650795651663e-01 -3.6085903551492926e-01 0.0000000000000000e+00  -4.6995082800927912e-01 -4.6784300779202176e-01 0.0000000000000000e+00  -1.3248274834513876e-01 -1.3265726617592688e-01 0.0000000000000000e+00  -1.3270175335598161e-01 -1.3228123611575232e-01 0.0000000000000000e+00  -2.5536389293877254e-01 -2.3781944318818438e-01 0.0000000000000000e+00  -3.7274217324744535e-01 -3.6852872768993006e-01 0.0000000000000000e+00  1.0400948133659981e-02 -4.2088942866638866e-03 0.0000000000000000e+00  -1.3460352243270168e-01 -1.1330683317942819e-01 0.0000000000000000e+00  -2.4662565123817315e-01 -2.5506938618923536e-01 0.0000000000000000e+00  -1.2146749569403051e-01 -1.3236826293096818e-01 0.0000000000000000e+00  -6.8820123828509927e-01 -6.9977400880341789e-01 0.0000000000000000e+00  -3.6836287106646110e-01 -3.7430057577587128e-01 0.0000000000000000e+00  -8.4717338049793700e-01 -8.6751395006128829e-01 0.0000000000000000e+00  -9.8600831444127335e-01 -9.9630893982654956e-01 0.0000000000000000e+00  -1.0134325447252388e+00 -9.9210532050823863e-01 0.0000000000000000e+00  -8.7809861210035800e-01 -8.4106941522956946e-01 0.0000000000000000e+00  -7.8178542955925312e-01 -7.6804329835198182e-01 0.0000000000000000e+00  -7.0582013761434326e-01 -6.9038030087171642e-01 0.0000000000000000e+00  1.2968763069668163e-01 1.1641393029890924e-01 0.0000000000000000e+00  2.6116650602772012e-01 2.3526539651915634e-01 0.0000000000000000e+00  -1.0511199738112373e-01 -1.0767913939880455e-01 0.0000000000000000e+00  -7.7167554026035634e-01 -7.7150090635707347e-01 0.0000000000000000e+00  2.9911476066607767e-01 2.9706089716101730e-01 0.0000000000000000e+00  -3.3265366090747972e-01 -3.3437347168768167e-01 0.0000000000000000e+00  -5.9449136664166213e-01 -5.9512111083247743e-01 0.0000000000000000e+00  -6.9058107060090990e-01 -6.8151958853739725e-01 0.0000000000000000e+00  -5.9580943903379158e-01 -5.9130428781326283e-01 0.0000000000000000e+00  -3.9374883379558895e-01 -3.8797838289997244e-01 0.0000000000000000e+00  -9.7693791555949838e-01 -9.8305651263900073e-01 0.0000000000000000e+00  -9.5971029095808191e-01 -9.5496955542607687e-01 0.0000000000000000e+00  -2.0754677416613812e-01 -2.0745814652216549e-01 0.0000000000000000e+00  -2.1199883457947594e-01 -2.1157329068160646e-01 0.0000000000000000e+00  -4.5239145279027199e-01 -4.6079741252601991e-01 0.0000000000000000e+00  -2.2506083147276418e-01 -2.2352873270184329e-01 0.0000000000000000e+00  -9.4918722679042361e-02 -9.5497273004095037e-02 0.0000000000000000e+00  -8.9470465172373115e-01 -8.9983589479127801e-01 0.0000000000000000e+00  -5.2006462492420391e-01 -5.1291642672491222e-01 0.0000000000000000e+00  -4.5376468788227736e-01 -4.5919736606408212e-01 0.0000000000000000e+00  -6.7702809724135848e-01 -6.8755063820039808e-01 0.0000000000000000e+00  1.0399751086932496e-01 1.0406809425952292e-01 0.0000000000000000e+00  -4.9851831266788882e-01 -5.0223475425278463e-01 0.0000000000000000e+00  -3.8217047214377770e-01 -3.8346955529319487e-01 0.0000000000000000e+00  -4.6655940316176236e-01 -4.6776052627215498e-01 0.0000000000000000e+00  -3.7068191105671078e-01 -3.7334311598332171e-01 0.0000000000000000e+00  -5.2036143914682587e-01 -5.1971402630878061e-01 0.0000000000000000e+00  -4.8328728769850032e-02 -4.6860518585694309e-02 0.0000000000000000e+00  -1.0924034021887244e-01 -1.0722063180212796e-01 0.0000000000000000e+00  -7.1601236470696850e-01 -7.1253266077270405e-01 0.0000000000000000e+00  -8.7906067267115762e-01 -8.8745132073985300e-01 0.0000000000000000e+00  -4.7070435223170426e-01 -4.6865108515242421e-01 0.0000000000000000e+00  -5.9885978299228271e-01 -6.0376717965951898e-01 0.0000000000000000e+00  1.4496146146808667e-01 1.4541911905255359e-01 0.0000000000000000e+00  2.5253136323471476e-01 2.5400261757079579e-01 0.0000000000000000e+00  -3.8145755532249009e-01 -3.8001626415628736e-01 0.0000000000000000e+00  -1.9230954878831430e-01 -1.9357760469380025e-01 0.0000000000000000e+00  -2.4142751214121083e-01 -2.4210139547535070e-01 0.0000000000000000e+00  -8.9701186543243039e-01 -8.9825035685334942e-01 0.0000000000000000e+00  -6.5235103026427332e-01 -6.5233941397073392e-01 0.0000000000000000e+00  -6.0126126017635118e-01 -5.9483515961208511e-01 0.0000000000000000e+00  -8.5870319842253212e-02 -8.6123829539504065e-02 0.0000000000000000e+00  -2.7072610892815596e-01 -2.7168770720465585e-01 0.0000000000000000e+00  -2.5727968629818654e-01 -2.5687499452372148e-01 0.0000000000000000e+00  -7.1182460399029823e-01 -7.0606146410211068e-01 0.0000000000000000e+00  -4.7259274350106784e-01 -4.7617913253913235e-01 0.0000000000000000e+00  -6.0304812309423805e-01 -6.0666384901350590e-01 0.0000000000000000e+00  -5.6815940615679861e-01 -5.6766634281371642e-01 0.0000000000000000e+00  -1.8334936468076926e-01 -1.8372740517800634e-01 0.0000000000000000e+00  -6.5047148054241943e-01 -6.5426488573563113e-01 0.0000000000000000e+00  -2.6548676361776835e-01 -2.6700888130689165e-01 0.0000000000000000e+00  1.5283719538403417e-01 1.5163449118765679e-01 0.0000000000000000e+00  1.0246320032031955e-01 1.0397523763040528e-01 0.0000000000000000e+00  -5.1082508025300144e-01 -5.1048398665896177e-01 0.0000000000000000e+00  -8.6382660525982013e-01 -8.6168181680111311e-01 0.0000000000000000e+00  -6.3555866510825887e-01 -6.3935823483955290e-01 0.0000000000000000e+00  -5.0700732795362491e-01 -5.1278842171247407e-01 0.0000000000000000e+00  -9.3381856841002797e-01 -9.3816612666684385e-01 0.0000000000000000e+00  -9.8251722895991378e-01 -9.8179917280541396e-01 0.0000000000000000e+00  -5.3065431999693313e-01 -5.3146373040158412e-01 0.0000000000000000e+00  -3.6147951348662882e-01 -3.6047878914808557e-01 0.0000000000000000e+00  -4.5639726853670781e-01 -4.5696541036289495e-01 0.0000000000000000e+00  -4.0795987973866815e-01 -4.0814203935117349e-01 0.0000000000000000e+00  -9.2279759151111529e-01 -9.2316927514061931e-01 0.0000000000000000e+00  2.3247222903285222e-02 2.2553833278424140e-02 0.0000000000000000e+00  -7.6442467393064839e-01 -7.5353751121127477e-01 0.0000000000000000e+00  -8.3734950864155622e-01 -8.4372956019873846e-01 0.0000000000000000e+00  -7.9951719869211602e-01 -7.9432764063097683e-01 0.0000000000000000e+00  -7.7910075355814190e-01 -7.7358763242740403e-01 0.0000000000000000e+00  -7.4834036511100166e-01 -7.5212166443568018e-01 0.0000000000000000e+00  -5.0561126775348764e-01 -5.0697154209317685e-01 0.0000000000000000e+00  -4.7249419942584137e-01 -4.7027354246961850e-01 0.0000000000000000e+00  -3.5112774002309965e-01 -3.5393202494821185e-01 0.0000000000000000e+00  -2.3492390792211781e-01 -2.3406263261804999e-01 0.0000000000000000e+00  -9.7398991607245311e-01 -9.6609994559485357e-01 0.0000000000000000e+00  -9.4129926624252147e-01 -9.3620333641982212e-01 0.0000000000000000e+00  -9.6860125866411817e-01 -9.3853613785091716e-01 0.0000000000000000e+00  -2.9983483337367028e-01 -3.0339543220189491e-01 0.0000000000000000e+00  -2.7441072353747720e-01 -2.7227019799226188e-01 0.0000000000000000e+00  