<?xml version="1.0"?>
<VTKFile type="UnstructuredGrid"  version="0.1"  >
<UnstructuredGrid>
<Piece  NumberOfPoints="1385" NumberOfCells="2640">
<Points>
<DataArray  type="Float64"  NumberOfComponents="3"  format="ascii">0 0 0  1 0 0  1 1 0  0 1 0  0.5 0 0  1 0.5 0  0.5 1 0  0 0.5 0  0.5 0.5 0  0 0.25 0  0.25 0 0  0.25 1 0  0 0.75 0  1 0.25 0  0.75 0 0  1 0.75 0  0.75 1 0  0.7083333333333333 0.2916666666666667 0  0.2916666666666666 0.7083333333333334 0  0.375 0.25 0  0.75 0.625 0  0.2569444444444444 0.4652777777777778 0  0.5366379310344828 0.7535919540229885 0  0.1875 0.1875 0  0.8125 0.8125 0  0.869047619047619 0.375 0  0.1450441919191919 0.6052714646464646 0  0.375 0.8690476190476191 0  0.5526960784313725 0.1825980392156862 0  0.8385416666666666 0.1614583333333334 0  0.1614583333333333 0.8385416666666667 0  0.6736111111111112 0.4652777777777778 0  0.1367521367521368 0.3477564102564102 0  0.6570970491253563 0.8648656830417855 0  0.5102479397556124 0.3386260301221938 0  0.3654513888888889 0.5737847222222222 0  0.6929750044954185 0.1362784921584263 0  0.388576102743835 0.411911725237599 0  0.6091269841269842 0.5942460317460317 0  0.875 0.6875 0  0.427278890279516 0.119889445139758 0  0.8544456845238095 0.5213913690476191 0  0.125 0 0  0 0.125 0  1 0.875 0  0.875 1 0  0.1280008648150532 0.4769292340226777 0  0.2695382451711197 0.3321750950221553 0  0.7031567235715964 0.7447810921428012 0  0.625 0 0  0.375 0 0  0.125 1 0  0.875 0 0  0 0.375 0  0 0.625 0  1 0.375 0  0.375 1 0  1 0.125 0  0 0.875 0  0.625 1 0  1 0.625 0  0.2979288363930608 0.1201429454643536 0  0.410919540229885 0.7484605911330049 0  0.5325041980395562 0.878905151526474 0  0.4831670727569156 0.6331060043826487 0  0.1735997378973042 0.7204747378973043 0  0.2534919507575758 0.5772372159090909 0  0.2633928571428572 0.8876488095238095 0  0.8199404761904761 0.2730654761904762 0  0.75830270586982 0.3919383189517417 0  0.5750282248382511 0.4237522353023667 0  0.6008360210023379 0.2794828358598495 0  0.08163442644334186 0.6821295860397322 0  0.08333333333333333 0.1875 0  0.2028380815996574 0.08844602719988583 0  0.2766521142611967 0.2325436572164097 0  0.90625 0.78125 0  0.890625 0.890625 0  0.7545696325008384 0.8973565441669461 0  0.5625 0.08086590340834317 0  0.09077380952380953 0.09077380952380952 0  0.4610923478694773 0.209034015149656 0  0.7542527598351648 0.5248380520595106 0  0.6459235536037465 0.3619913988405765 0  0.7560381768882634 0.20506142233852 0  0.07073252688172042 0.8125 0  0.0924753097241701 0.9078102849914793 0  0.9292674731182795 0.1875 0  0.9075246902758297 0.09218971500852073 0  0.8125 0.07073252688172045 0  0.2400955776842301 0.7869705776842302 0  0.9121050213379069 0.2781978201831695 0  0.7916878157143976 0.7239689078571988 0  0.9345238095238094 0.4375 0  0.4375 0.9345238095238095 0  0.3725616989755203 0.6651895248862173 0  0.06536271996350887 0.5625 0  0.9348362560379583 0.5625 0  0.456646798987055 0.8277247094351965 0  0.1875 0.9355758238725954 0  0.6169761231634859 0.6939779188977889 0  0.6226854751147515 0.7827911461419014 0  0.3305695598137626 0.7901697871282585 0  0.5865305325818898 0.5101085479043448 0  0.6622701297028378 0.2177663989757395 0  0.1354166666666667 0.2591702279202279 0  0 0.3125 0  0.2094429575680048 0.3936361846162499 0  0.836666296419157 0.607917407161686 0  0.6875 1 0  0.214261555450504 0.6492551722020035 0  0 0.4375 0  0.07731537126068377 0.40625 0  0.3427725432967068 0.4879566233699599 0  0.3550792513951871 0.3331953632609953 0  0.4462473953896857 0.2887834789342508 0  0.4747801464819794 0.417386052030127 0  0.8229836475148948 0.4443292349237342 0  0.7322605135514757 0.8199240278289671 0  0.6756431877205955 0.5468989748126787 0  0.1968419507215863 0.5194573482612496 0  0.3285590277777778 0.9345238095238095 0  0.8125 1 0  0.4198917601920009 0.5134893045331258 0  0.5232405503206691 0.2595791787880157 0  1 0.9375 0  0.1987510870015086 0.3025185951894431 0  0.5625 1 0  0.6005390654136388 0.9228110509230952 0  0.6411254848194414 0.07704872765442942 0  0.3357233162523242 0.1855113224530532 0  0.6730653396610877 0.6393887462324165 0  0.310966987234063 0.6240019765311626 0  0.7368737836204349 0.07457755202327881 0  0.6192316414418171 0.1485238406378594 0  0.5432429670607106 0.678552703844006 0  0.4754371679695679 0.7103946803120881 0  0.07501324890749672 0.3043839897335739 0  0.5358146975860403 0.5688321463205916 0  0.3115271739500156 0.3982137365971444 0  0.3625191397122174 0.0767854603650549 0  0.5024029442563831 0.1264128223758444 0  0.4375 0 0  0.4699946908887376 0.06379961173775725 0  0.9375 0.71875 0  0.9272105898044465 0.635671179608893 0  0.9375 1 0  0.6690971819568612 0.9331530898202766 0  0.1073454944778885 0.7499206387638554 0  0.8699082999280406 0.2232403652524313 0  0.5773118091863964 0.3548027349159383 0  0.1354166666666667 0.1428571428571428 0  0.3125 0 0  0.8241684193077341 0.9257452995055244 0  0.4352314948354036 0.3586940847489378 0  0.4351301473778832 0.5819726043539077 0  0.8073232928518163 0.3419398170341962 0  0.7775949246947366 0.1298519409204575 0  0.6875 0 0  0.7413513991851041 0.457933324954483 0  0.939453125 0.841796875 0  0.5630355154606987 0.8171875156478349 0  0.9345238095238095 0.3461466592368577 0  0.9375 0 0  1 0.0625 0  0.0625 1 0  0 0.9375 0  0.06552178593177167 0.4969053669623468 0  0.1424866619031703 0.4130277709291224 0  0.1275287182444726 0.5422946908002588 0  0.2637686595586339 0.06413888464529549 0  0.2524263535491086 0.1697437503243817 0  0.7367218397988525 0.6888573970660841 0  0.0625 0 0  0 0.0625 0  0.8463594539285995 0.7578283617857982 0  0.3128751192101563 0.2851997374369947 0  0.4015281788351144 0.1806421385113692 0  0.1910251795116588 0.4553332197174453 0  0.287797471442006 0.5222621440543902 0  0.3962628745986055 0.8097380085535307 0  0.3505895299554843 0.7304878890838692 0  0.5019151500495276 0.9356042615328103 0  0.9374389419410134 0.4999931039076005 0  0.3125 1 0  0.1875 1 0  1 0.5625 0  0.4375 1 0  1 0.3125 0  1 0.4375 0  0.8125 0 0  1 0.1875 0  0.5625 0 0  0.1875 0 0  0 0.1875 0  0 0.5625 0  0 0.6875 0  0 0.8125 0  1 0.6875 0  1 0.8125 0  0.8021696218581627 0.6612893947866073 0  0.06154922295426143 0.6239401126946708 0  0.9359375 0.9359375 0  0.4666158024849896 0.7691515918155014 0  0.2318201265217025 0.7064974250277525 0  0.1565954253579966 0.6635489312486841 0  0.1598132503680848 0.7787147500325552 0  0.3146529991605639 0.8510876378205265 0  0.1461873209418733 0.05982804528877814 0  0.06109554988524315 0.2446551776247686 0  0.8054950308560754 0.5564226538848541 0  0.470541749491976 0.8853316336952531 0  0.6948472567465137 0.4042308563372457 0  0.8802828472348889 0.4658893256343853 0  0.6788075634946739 0.7974194205806069 0  0.2155048659603867 0.2428201584940968 0  0.8131223143423806 0.2132171049028394 0  0.4330798005432235 0.6671274900735726 0  0.6015279126162613 0.2187368078743274 0  0.8061636571464289 0.8703766630361714 0  0.7008230445061776 0.3478568388444072 0  0.8638466246958771 0.3147095987735538 0  0.204801534004265 0.8789209409594009 0  0.2449006736431132 0.9424182882803838 0  0.7611268409371427 0.2643056884799992 0  0.7552800864046191 0.7678006649959446 0  0.5983639638906616 0.864113435029236 0  0.1956559506814437 0.577281203577426 0  0.3527670268164207 0.1320469097565204 0  0.7530364577483248 0.3262386077083089 0  0.4535919187979363 0.4690107087451527 0  0.8824869791666666 0.8336588541666666 0  0.8814453125 0.9451171875 0  0.5582987942628019 0.622421666543858 0  0.6817532446064828 0.6939001801354731 0  0.3830295138888889 0.9450968952922078 0  0.4140603937012541 0.05211333372716105 0  0.5535864501303013 0.3060591985391672 0  0.6560130086346878 0.2729726562211558 0  0.890203140221684 0.5948314305427268 0  0.7043857725999024 0.593980890020804 0  0.5105843922695152 0.8016828014338627 0  0.05365910753708378 0.7315110031682004 0  0.616904573672261 0.4621186633436136 0  0.5338511646455415 0.387875898899613 0  0.5231769258947843 0.4477682463140762 0  0.650302973237622 0.7370722302085519 0  0.3927483139621257 0.4662414504529014 0  0.8034595960585199 0.4972538342758211 0  0.7738337841682438 0.9496376207663251 0  0.7193737507158268 0.954685447650112 0  0.482525916480686 0.5528257169991676 0  0.2533501157346781 0.2809495420003238 0  0.3118487924482243 0.5702930126570319 0  0.6257598847669529 0.4104163315430518 0  0.1354166666666667 0.1955605158730158 0  0.04166666666666666 0.15625 0  0.3956448985530264 0.6174149462065157 0  0.8102897701818546 0.3938784238208349 0  0.2641154190013625 0.8344469561943118 0  0.642852220770013 0.5068794586563659 0  0.05271458179508221 0.355846947336007 0  0.7021551360070266 0.8921457280225779 0  0.5692125776683765 0.1328512638850284 0  0.5206162811937602 0.04865158770992991 0  0.6001838442201555 0.04540556991297563 0  0.2597716608242787 0.4118346398477178 0  0.4040584599473195 0.3179589136784675 0  0.1480337679295207 0.8941560631483065 0  0.1344356707112281 0.9466251177415842 0  0.7114696411829317 0.4983917389078826 0  0.7585704698442475 0.5751926345944629 0  0.2189131956390871 0.04022068508159698 0  0.2476935455192043 0.1123642267635843 0  0.185995005654517 0.1365524537205238 0  0.6223414373308711 0.643380839165121 0  0.5732602596637543 0.7190051747306219 0  0.268358222364537 0.6586246524467934 0  0.3265879848129173 0.2369791782191225 0  0.1267095595787346 0.7034787238999181 0  0.1115202922226038 0.6421997933884982 0  0.3128688392940203 0.07260997451790079 0  0.550724900485678 0.9253360991633187 0  0.7142608810459105 0.2384904702214873 0  0.7045869185243887 0.1871826897887429 0  0.890625 0.734375 0  0.953125 0.765625 0  0.2111812642821677 0.8286209446459138 0  0.9590293078204457 0.09375 0  0.953431269039847 0.1435719386408004 0  0.04097069217955424 0.90625 0  0.04656873096015299 0.8564280613591996 0  0.1078743037981226 0.8541621766048062 0  0.8921256962018773 0.1458378233951939 0  0.8521576979194619 0.1084496634207678 0  0.8655663982740958 0.05464346096571447 0  0.04005659640905543 0.09375 0  0.1001448316533417 0.04246776244228261 
[...]
<PointData  Vectors="f_8394-3"> 
<DataArray  type="Float64"  Name="f_8394-3"  NumberOfComponents="3" format="ascii">-1.0016308915179344e+00 -1.0016270941083871e+00 0.0000000000000000e+00  -5.4085049060067680e-01 -5.4093465686387265e-01 0.0000000000000000e+00  4.1669502318098689e-01 4.1669502318077017e-01 0.0000000000000000e+00  -5.4081335607157077e-01 -5.4091267730449366e-01 0.0000000000000000e+00  -8.7859620057883892e-01 -8.8205256579447866e-01 0.0000000000000000e+00  -6.7557813331762626e-02 -7.0779212784706919e-02 0.0000000000000000e+00  -7.0751729143821995e-02 -6.7882928494655076e-02 0.0000000000000000e+00  -8.8172667589471543e-01 -8.7849603519851616e-01 0.0000000000000000e+00  -5.4096572786380048e-01 -5.4103939516576183e-01 0.0000000000000000e+00  -9.7331076056030874e-01 -9.7009756011270987e-01 0.0000000000000000e+00  -9.7006636313900607e-01 -9.7351173494762933e-01 0.0000000000000000e+00  -3.1567612949109103e-01 -3.1249837512434003e-01 0.0000000000000000e+00  -7.3537280343620326e-01 -7.3255332470444146e-01 0.0000000000000000e+00  -3.1269037175897668e-01 -3.1566429002061874e-01 0.0000000000000000e+00  -7.3259477722192212e-01 -7.3506225680798321e-01 0.0000000000000000e+00  1.8207800591359699e-01 1.7842579672282158e-01 0.0000000000000000e+00  1.7845539859549306e-01 1.8201372698512008e-01 0.0000000000000000e+00  -5.4095798825693364e-01 -5.4111090451337740e-01 0.0000000000000000e+00  -5.4100910101840616e-01 -5.4085505701607295e-01 0.0000000000000000e+00  -8.1190811199331958e-01 -8.1199380901003460e-01 0.0000000000000000e+00  -1.9471674748802531e-01 -1.9502803391367560e-01 0.0000000000000000e+00  -7.5126186526152283e-01 -7.5125759405562254e-01 0.0000000000000000e+00  -2.7723157091823247e-01 -2.7705376115600916e-01 0.0000000000000000e+00  -9.3154365735484645e-01 -9.3163285044605215e-01 0.0000000000000000e+00  5.4006767416085615e-02 5.4403705526684110e-02 0.0000000000000000e+00  -3.2133269988494190e-01 -3.2151068694828489e-01 0.0000000000000000e+00  -7.3247999899686789e-01 -7.3235982252233600e-01 0.0000000000000000e+00  -3.2143218367756121e-01 -3.2121928408085765e-01 0.0000000000000000e+00  -7.4254550050967005e-01 -7.4250032741393723e-01 0.0000000000000000e+00  -5.4099895399280340e-01 -5.4103708412703155e-01 0.0000000000000000e+00  -5.4118682247222316e-01 -5.4089603757410509e-01 0.0000000000000000e+00  -4.1911990829613383e-01 -4.1912221307218184e-01 0.0000000000000000e+00  -8.8602063911823303e-01 -8.8595371467390138e-01 0.0000000000000000e+00  -4.8870161013603246e-02 -4.8928868744055082e-02 0.0000000000000000e+00  -6.6153430616298048e-01 -6.6165376000507081e-01 0.0000000000000000e+00  -5.9105772892080533e-01 -5.9122088072793821e-01 0.0000000000000000e+00  -6.7620454989159284e-01 -6.7637780176699325e-01 0.0000000000000000e+00  -6.9713574597846928e-01 -6.9728395256892195e-01 0.0000000000000000e+00  -3.5958801996928791e-01 -3.5974083639359233e-01 0.0000000000000000e+00  -8.2150341574990342e-03 -8.4212894040716947e-03 0.0000000000000000e+00  -8.5515790570921824e-01 -8.5496703202052970e-01 0.0000000000000000e+00  -1.9384058000765414e-01 -1.9390906287058671e-01 0.0000000000000000e+00  -9.9332209580134645e-01 -9.9766878724831620e-01 0.0000000000000000e+00  -9.9782639203589962e-01 -9.9341765594093978e-01 0.0000000000000000e+00  3.0414847363454489e-01 2.9985695329724893e-01 0.0000000000000000e+00  2.9989777004668400e-01 3.0382848717097161e-01 0.0000000000000000e+00  -8.2366095315654919e-01 -8.2349708071510785e-01 0.0000000000000000e+00  -8.2538930755121176e-01 -8.2540384048340498e-01 0.0000000000000000e+00  -1.2290299004124944e-01 -1.2257118102066962e-01 0.0000000000000000e+00  -8.1196536133311281e-01 -8.1514016473517870e-01 0.0000000000000000e+00  -9.3150998791106354e-01 -9.3494874207655287e-01 0.0000000000000000e+00  -4.3169769672930436e-01 -4.2900018307259996e-01 0.0000000000000000e+00  -6.4172214204448008e-01 -6.4514763482093440e-01 0.0000000000000000e+00  -9.3521736241974829e-01 -9.3163546660995011e-01 0.0000000000000000e+00  -8.1512313822566118e-01 -8.1191098166999909e-01 0.0000000000000000e+00  -1.9160089671047059e-01 -1.9480454122249785e-01 0.0000000000000000e+00  -1.9473929675578480e-01 -1.9157958403396969e-01 0.0000000000000000e+00  -4.2919890274640771e-01 -4.3164808884479744e-01 0.0000000000000000e+00  -6.4478768125276398e-01 -6.4171545487766501e-01 0.0000000000000000e+00  5.4189038934224130e-02 5.7526526444671669e-02 0.0000000000000000e+00  5.7254906412439827e-02 5.4233366731143567e-02 0.0000000000000000e+00  -9.1501273931394644e-01 -9.1517263244749403e-01 0.0000000000000000e+00  -4.0035348512407903e-01 -4.0026732284485889e-01 0.0000000000000000e+00  -1.5883275089572485e-01 -1.5893781284095782e-01 0.0000000000000000e+00  -4.3967534872847058e-01 -4.3964966090186308e-01 0.0000000000000000e+00  -6.2706925032993122e-01 -6.2692535795983351e-01 0.0000000000000000e+00  -6.7518284169524190e-01 -6.7519281042150125e-01 0.0000000000000000e+00  -4.0795589805036614e-01 -4.0807659102336097e-01 0.0000000000000000e+00  -4.6041342958400999e-01 -4.6054468137259341e-01 0.0000000000000000e+00  -4.0868856728873737e-01 -4.0889805847618654e-01 0.0000000000000000e+00  -5.4200482470320044e-01 -5.4202329549938133e-01 0.0000000000000000e+00  -6.3785527353327898e-01 -6.3764182278681925e-01 0.0000000000000000e+00  -7.2330604860084391e-01 -7.2313395597253582e-01 0.0000000000000000e+00  -9.6488688596507255e-01 -9.6427387321435321e-01 0.0000000000000000e+00  -9.5885304211573930e-01 -9.5925832892831031e-01 0.0000000000000000e+00  -8.7426329403798175e-01 -8.7410988526851674e-01 0.0000000000000000e+00  1.1672343672120866e-01 1.1618032037476086e-01 0.0000000000000000e+00  2.0890368541411602e-01 2.0903648070045119e-01 0.0000000000000000e+00  8.0998719002408057e-02 8.1087473109027364e-02 0.0000000000000000e+00  -8.0115213404802266e-01 -8.0116022029053946e-01 0.0000000000000000e+00  -9.8429881022908083e-01 -9.8439795275331798e-01 0.0000000000000000e+00  -7.8473051435788499e-01 -7.8484311448009680e-01 0.0000000000000000e+00  -2.8803369868172307e-01 -2.8778317947575410e-01 0.0000000000000000e+00  -5.3432316806740743e-01 -5.3430309204230420e-01 0.0000000000000000e+00  -5.7330869941226403e-01 -5.7328104741821084e-01 0.0000000000000000e+00  -6.3583378183106265e-01 -6.3538593346516659e-01 0.0000000000000000e+00  -5.4068686608285388e-01 -5.4044696110396362e-01 0.0000000000000000e+00  -4.3867661732258639e-01 -4.3912195942196475e-01 0.0000000000000000e+00  -5.4077472215108946e-01 -5.4119689883456168e-01 0.0000000000000000e+00  -6.3575133849515297e-01 -6.3560227198125296e-01 0.0000000000000000e+00  -5.1790888406419366e-01 -5.1820785636254918e-01 0.0000000000000000e+00  -3.7167404364656276e-01 -3.7197184925913740e-01 0.0000000000000000e+00  -5.5071634906308453e-02 -5.5271815816033437e-02 0.0000000000000000e+00  -1.9718282079672772e-01 -1.9772662709029798e-01 0.0000000000000000e+00  -1.9772178667562343e-01 -1.9713104879306959e-01 0.0000000000000000e+00  -5.0870206900583803e-01 -5.0865239092931880e-01 0.0000000000000000e+00  -8.1044941939132409e-01 -8.1041859766530433e-01 0.0000000000000000e+00  -7.3044538148099331e-02 -7.3326506440193284e-02 0.0000000000000000e+00  -2.8284931581906780e-01 -2.8297322237685169e-01 0.0000000000000000e+00  -4.3363436268567024e-01 -4.3278812841672104e-01 0.0000000000000000e+00  -2.5724944047659604e-01 -2.5721376257946915e-01 0.0000000000000000e+00  -1.6487811543864994e-01 -1.6463789291794309e-01 0.0000000000000000e+00  -4.3564825238842425e-01 -4.3556069935310859e-01 0.0000000000000000e+00  -4.5719905446482079e-01 -4.5717430501753253e-01 0.0000000000000000e+00  -6.3780783008093789e-01 -6.3796428728548960e-01 0.0000000000000000e+00  -9.2420547778297524e-01 -9.2408863683099374e-01 0.0000000000000000e+00  -9.5574153867564726e-01 -9.5257211215979387e-01 0.0000000000000000e+00  -8.2466848313158647e-01 -8.2459836328149871e-01 0.0000000000000000e+00  -1.2592808438477196e-01 -1.2610604605394446e-01 0.0000000000000000e+00  1.1656780717116197e-01 1.1999042438433707e-01 0.0000000000000000e+00  -6.5052954075272129e-01 -6.5049796953919026e-01 0.0000000000000000e+00  -9.0959250383762857e-01 -9.0697431711268017e-01 0.0000000000000000e+00  -8.8659871610325691e-01 -8.8628895375802252e-01 0.0000000000000000e+00  -6.7523691256743634e-01 -6.7535952790070808e-01 0.0000000000000000e+00  -7.7300143331773086e-01 -7.7329872336745087e-01 0.0000000000000000e+00  -7.4273256557812040e-01 -7.4272583324542718e-01 0.0000000000000000e+00  -6.2860910723959229e-01 -6.2859659500610221e-01 0.0000000000000000e+00  -2.9922575259662104e-01 -2.9927079389332106e-01 0.0000000000000000e+00  -1.8639034697970600e-02 -1.8495736278292849e-02 0.0000000000000000e+00  -3.4167689908718413e-01 -3.4158839211601433e-01 0.0000000000000000e+00  -7.5522586211956089e-01 -7.5522170284930801e-01 0.0000000000000000e+00  -3.0324710812107103e-01 -3.0290199204454143e-01 0.0000000000000000e+00  2.3966685936824147e-01 2.4350232004010491e-01 0.0000000000000000e+00  -5.9588982897019793e-01 -5.9559909995524385e-01 0.0000000000000000e+00  -7.0967856347305314e-01 -7.0967591676453445e-01 0.0000000000000000e+00  3.6313895006983993e-01 3.5894074984716451e-01 0.0000000000000000e+00  -8.7821043448039637e-01 -8.7814920552276565e-01 0.0000000000000000e+00  -8.3090771460411564e-03 -5.1651751413657153e-03 0.0000000000000000e+00  -4.7723279846562397e-02 -4.7225083714957219e-02 0.0000000000000000e+00  -7.5373025551893746e-01 -7.5427953678957538e-01 0.0000000000000000e+00  -8.6816983868483333e-01 -8.6819337310567191e-01 0.0000000000000000e+00  -2.5589309539310012e-01 -2.5599266106814533e-01 0.0000000000000000e+00  -5.9475420604797036e-01 -5.9468394891395571e-01 0.0000000000000000e+00  -6.8927852407271284e-01 -6.8969341807502438e-01 0.0000000000000000e+00  -7.2027367327571701e-01 -7.2024896669784300e-01 0.0000000000000000e+00  -3.4240909624952698e-01 -3.4245175694935048e-01 0.0000000000000000e+00  -3.7625656134180280e-01 -3.7594959004013395e-01 0.0000000000000000e+00  -9.3034432675536927e-01 -9.3011612081044448e-01 0.0000000000000000e+00  -4.4998336102368852e-01 -4.5001684682762111e-01 0.0000000000000000e+00  -7.5946887775617922e-01 -7.5939368447072875e-01 0.0000000000000000e+00  -9.0613046245009121e-01 -9.0627963024467406e-01 0.0000000000000000e+00  -8.0973566385877316e-01 -8.0966812726623549e-01 0.0000000000000000e+00  -9.0689256409201491e-01 -9.1042015053235636e-01 0.0000000000000000e+00  -8.6182160546942854e-01 -8.6253084501987376e-01 0.0000000000000000e+00  8.6070347975100006e-02 8.5365762222538222e-02 0.0000000000000000e+00  -7.5327828656501367e-03 -8.0893156749839816e-03 0.0000000000000000e+00  3.5904343414424095e-01 3.6323717473115891e-01 0.0000000000000000e+00  3.1548169967415517e-02 3.2019885066278925e-02 0.0000000000000000e+00  -6.5510251660330532e-01 -6.5549133684647165e-01 0.0000000000000000e+00  -4.6004395457966485e-01 -4.6021411716402194e-01 0.0000000000000000e+00  -5.9688615141649426e-01 -5.9698264981687377e-01 0.0000000000000000e+00  -9.6246786267693107e-01 -9.6263089023381765e-01 0.0000000000000000e+00  -9.5264956472896811e-01 -9.5610333421226668e-01 0.0000000000000000e+00  1.7833008353273716e-01 1.7873112171808800e-01 0.0000000000000000e+00  -7.0186285809038473e-01 -7.0180268078673980e-01 0.0000000000000000e+00  -5.2648779405237911e-01 -5.2655776973193569e-01 0.0000000000000000e+00  -4.0968795529646790e-01 -4.0973055471539854e-01 0.0000000000000000e+00  -6.1653557541272197e-01 -6.1661693337054846e-01 0.0000000000000000e+00  -7.7372998339008814e-01 -7.7673549570844469e-01 0.0000000000000000e+00  -3.6350924834776621e-01 -3.6356627155533094e-01 0.0000000000000000e+00  2.0990108298036880e-01 2.0925777087107444e-01 0.0000000000000000e+00  -1.8977335527188047e-01 -1.8962262727181572e-01 0.0000000000000000e+00  -2.8593155897754596e-01 -2.8642941418448303e-01 0.0000000000000000e+00  -5.9247309787597913e-01 -5.9479713503694087e-01 0.0000000000000000e+00  -4.8530783494305951e-01 -4.8725289145421602e-01 0.0000000000000000e+00  -4.8720657358644681e-01 -4.8502632668087708e-01 0.0000000000000000e+00  -5.9494627214949491e-01 -5.9249621592270862e-01 0.0000000000000000e+00  -8.4752523778686517e-01 -8.4727410210741849e-01 0.0000000000000000e+00  -8.5073031984673952e-01 -8.5086278981243457e-01 0.0000000000000000e+00  -7.8488213478822311e-01 -7.8500557829528916e-01 0.0000000000000000e+00  -9.4799076408633987e-01 -9.4849180635263342e-01 0.0000000000000000e+00  -9.1348874219743870e-01 -9.1346578821129065e-01 0.0000000000000000e+00  -1.4486879309023665e-01 -1.4511151932231811e-01 0.0000000000000000e+00  -9.9918612530153927e-01 -1.0042613361491242e+00 0.0000000000000000e+00  -1.0042149576091612e+00 -9.9921223700416195e-01 0.0000000000000000e+00  3.3531138422485930e-02 3.3164659222600409e-02 0.0000000000000000e+00  -8.2738272829708648e-01 -8.2764120240413441e-01 0.0000000000000000e+00  -8.3635698411514747e-01 -8.3635397493480879e-01 0.0000000000000000e+00  -7.9936452631287092e-01 -7.9914806316323483e-01 0.0000000000000000e+00  -6.9034982013611867e-01 -6.9034938329909690e-01 0.0000000000000000e+00  -3.5715513242828090e-01 -3.5730590182399047e-01 0.0000000000000000e+00  -4.7105573259639888e-01 -4.7090087370069289e-01 0.0000000000000000e+00  -1.3310121522210269e-01 -1.3233333163646052e-01 0.0000000000000000e+00  -1.3254137729132454e-01 -1.3318582278521690e-01 0.0000000000000000e+00  -2.5569128452540502e-01 -2.5248225270200025e-01 0.0000000000000000e+00  -3.7442778001013810e-01 -3.7146191921461558e-01 0.0000000000000000e+00  -5.2192408710777134e-03 -8.3805884119095113e-03 0.0000000000000000e+00  -1.3301104978568951e-01 -1.3006478884195122e-01 0.0000000000000000e+00  -2.5259919250698598e-01 -2.5570917828287693e-01 0.0000000000000000e+00  -1.2993566129070355e-01 -1.3307375349006953e-01 0.0000000000000000e+00  -6.8845791454217975e-01 -6.9158464756718352e-01 0.0000000000000000e+00  -3.7161441665067751e-01 -3.7437855578461265e-01 0.0000000000000000e+00  -8.4686396886334037e-01 -8.5012882274871848e-01 0.0000000000000000e+00  -9.8363739424931362e-01 -9.8706845586560932e-01 0.0000000000000000e+00  -9.8744782678368792e-01 -9.8362200695926427e-01 0.0000000000000000e+00  -8.5089798013868501e-01 -8.4706924163708952e-01 0.0000000000000000e+00  -7.7633817645634851e-01 -7.7381490873845560e-01 0.0000000000000000e+00  -6.9176146936157767e-01 -6.8856013897931445e-01 0.0000000000000000e+00  1.1979830852936720e-01 1.1656078067642840e-01 0.0000000000000000e+00  2.4362480012799764e-01 2.3972911283409470e-01 0.0000000000000000e+00  -1.0707789942469387e-01 -1.0746083251833441e-01 0.0000000000000000e+00  -7.7571739711420262e-01 -7.7462090927303573e-01 0.0000000000000000e+00  2.9755120252774547e-01 2.9735730576742825e-01 0.0000000000000000e+00  -3.2938379244598243e-01 -3.2905339460274896e-01 0.0000000000000000e+00  -5.9191650530276829e-01 -5.9168437121228878e-01 0.0000000000000000e+00  -6.8306239414004288e-01 -6.8293658689557835e-01 0.0000000000000000e+00  -5.9184161677818570e-01 -5.9194641722995578e-01 0.0000000000000000e+00  -3.9456872641308338e-01 -3.9445946738633764e-01 0.0000000000000000e+00  -9.7952958345838848e-01 -9.8091000765809500e-01 0.0000000000000000e+00  -9.5563314430877355e-01 -9.5450466453674432e-01 0.0000000000000000e+00  -2.0755334583131188e-01 -2.0746568613540570e-01 0.0000000000000000e+00  -2.1358190622508424e-01 -2.1347910493083672e-01 0.0000000000000000e+00  -4.5500282188182423e-01 -4.5504646663775206e-01 0.0000000000000000e+00  -2.2291315400812181e-01 -2.2300897116112606e-01 0.0000000000000000e+00  -9.4708161522084833e-02 -9.4473055144739693e-02 0.0000000000000000e+00  -8.9782430294351578e-01 -8.9795058253584858e-01 0.0000000000000000e+00  -5.1859178962899599e-01 -5.1847614932522923e-01 0.0000000000000000e+00  -4.5404528889317758e-01 -4.5398797132850355e-01 0.0000000000000000e+00  -6.8285888819309726e-01 -6.8303295479479531e-01 0.0000000000000000e+00  1.0556942222403488e-01 1.0556920297572034e-01 0.0000000000000000e+00  -4.9931842345978922e-01 -4.9939185436481343e-01 0.0000000000000000e+00  -3.8264894059808835e-01 -3.8280599183765884e-01 0.0000000000000000e+00  -4.6865487779947612e-01 -4.6853590508678045e-01 0.0000000000000000e+00  -3.7466342641289835e-01 -3.7375414368602355e-01 0.0000000000000000e+00  -5.1943926714544331e-01 -5.1945063965835581e-01 0.0000000000000000e+00  -4.7749199293282460e-02 -4.7616463085135924e-02 0.0000000000000000e+00  -1.0842306078179292e-01 -1.0819421526534773e-01 0.0000000000000000e+00  -7.1691938170628000e-01 -7.1665414283495110e-01 0.0000000000000000e+00  -8.8560887785099696e-01 -8.8581661751098539e-01 0.0000000000000000e+00  -4.7263280166234456e-01 -4.7258302849300804e-01 0.0000000000000000e+00  -6.0438142021688035e-01 -6.0453022161914238e-01 0.0000000000000000e+00  1.4492030679589543e-01 1.4515507297856875e-01 0.0000000000000000e+00  2.5286830158844265e-01 2.5444093706661491e-01 0.0000000000000000e+00  -3.8079277819915003e-01 -3.8086876976962197e-01 0.0000000000000000e+00  -1.9434618339181528e-01 -1.9417560450046367e-01 0.0000000000000000e+00  -2.4049213293971125e-01 -2.3989123063972298e-01 0.0000000000000000e+00  -8.9465799955673031e-01 -8.9555055999596311e-01 0.0000000000000000e+00  -6.5359765368630107e-01 -6.5359632641039889e-01 0.0000000000000000e+00  -5.9927822763305394e-01 -5.9938909231904147e-01 0.0000000000000000e+00  -8.5727901276766827e-02 -8.5763164391435248e-02 0.0000000000000000e+00  -2.6945266871177065e-01 -2.6962694923532227e-01 0.0000000000000000e+00  -2.5600080453565205e-01 -2.5585824136505708e-01 0.0000000000000000e+00  -7.0905245169976738e-01 -7.0822791627189086e-01 0.0000000000000000e+00  -4.7296136742612233e-01 -4.7272681507202091e-01 0.0000000000000000e+00  -6.0526658797249522e-01 -6.0527801751132748e-01 0.0000000000000000e+00  -5.6526276978593615e-01 -5.6524272707126910e-01 0.0000000000000000e+00  -1.8271261348457671e-01 -1.8261192888172431e-01 0.0000000000000000e+00  -6.5400550902459520e-01 -6.5407756191161703e-01 0.0000000000000000e+00  -2.6698451405399387e-01 -2.6713513878606160e-01 0.0000000000000000e+00  1.5205746213924876e-01 1.5354209902870819e-01 0.0000000000000000e+00  1.0316089562273661e-01 1.0472243584909635e-01 0.0000000000000000e+00  -5.1090903962475287e-01 -5.1088006445537704e-01 0.0000000000000000e+00  -8.6176775717455978e-01 -8.6179683254080963e-01 0.0000000000000000e+00  -6.3627210401183165e-01 -6.3623882391659548e-01 0.0000000000000000e+00  -5.1019991603497949e-01 -5.1026754434993460e-01 0.0000000000000000e+00  -9.4691251539328858e-01 -9.4663959338626325e-01 0.0000000000000000e+00  -9.8363529384251858e-01 -9.8117684592442911e-01 0.0000000000000000e+00  -5.2984643213322047e-01 -5.3011752973846749e-01 0.0000000000000000e+00  -3.5900313967279107e-01 -3.5901729996862852e-01 0.0000000000000000e+00  -4.5533336325917673e-01 -4.5550256473232814e-01 0.0000000000000000e+00  -4.0936821567522041e-01 -4.0913643936012789e-01 0.0000000000000000e+00  -9.1973388667282385e-01 -9.1904829449323133e-01 0.0000000000000000e+00  2.3489997502239370e-02 2.3455445940594365e-02 0.0000000000000000e+00  -7.6442151250947066e-01 -7.6443715018544500e-01 0.0000000000000000e+00  -8.4304749406633139e-01 -8.4466231856405993e-01 0.0000000000000000e+00  -7.9959233659790396e-01 -8.0119462219653581e-01 0.0000000000000000e+00  -7.8378499362420717e-01 -7.8361600685341792e-01 0.0000000000000000e+00  -7.5150255179031289e-01 -7.5130668619792806e-01 0.0000000000000000e+00  -5.0505718739062078e-01 -5.0475306443454515e-01 0.0000000000000000e+00  -4.7093786529619663e-01 -4.7000753012314961e-01 0.0000000000000000e+00  -3.5360231303388084e-01 -3.5349231288428407e-01 0.0000000000000000e+00  -2.3511858562882568e-01 -2.3511083294421509e-01 0.0000000000000000e+00  -9.6771207207591525e-01 -9.6957858725988455e-01 0.0000000000000000e+00  -9.3689740916339614e-01 -9.3715695080256245e-01 0.0000000000000000e+00  -9.4944134583078421e-01 -9.4957304497292050e-01 0.0000000000000000e+00  -3.0069808412919274e-01 -3.0086241132463254e-01 0.0000000000000000e+00  -2.7525407756084036e-01 -2.7523732745042451e-01 0.0000000000000000e+00